<?xml version="1.0" encoding="ISO-8859-1"?>
<modeling>
 <generator>
  <i name="program" type="string">vasp </i>
  <i name="version" type="string">5.4.1  </i>
  <i name="subversion" type="string">05Feb16 (build Jul 05 2020 17:13:04) complex                          parallel </i>
  <i name="platform" type="string">IFC91_ompi </i>
  <i name="date" type="string">2024 04 17 </i>
  <i name="time" type="string">18:55:26 </i>
 </generator>
 <incar>
  <i type="int" name="ISTART">     0</i>
  <i type="string" name="PREC">normal</i>
  <i type="string" name="ALGO"> Normal</i>
  <i type="int" name="ISPIN">     1</i>
  <i type="int" name="ICHARG">     2</i>
  <i type="int" name="IBRION">     1</i>
  <i type="int" name="NSW">   100</i>
  <i type="int" name="ISIF">     3</i>
  <i type="int" name="ISYM">     0</i>
  <i name="SYMPREC">      0.00000001</i>
  <i name="POTIM">      0.50000000</i>
  <i type="logical" name="LPLANE"> F  </i>
  <i type="int" name="ISMEAR">     0</i>
  <i type="logical" name="LWAVE"> F  </i>
  <i type="logical" name="LCHARG"> F  </i>
  <v type="int" name="KPOINT_BSE">    -1     0     0     0</v>
 </incar>
 <kpoints>
  <generation param="Gamma">
   <v type="int" name="divisions">       8        8        1 </v>
   <v name="usershift">      0.00000000       0.00000000       0.00000000 </v>
   <v name="genvec1">      0.12500000       0.00000000       0.00000000 </v>
   <v name="genvec2">     -0.00000000       0.12500000       0.00000000 </v>
   <v name="genvec3">      0.00000000       0.00000000       1.00000000 </v>
   <v name="shift">      0.00000000       0.00000000       0.00000000 </v>
  </generation>
  <varray name="kpointlist" >
   <v>       0.00000000       0.00000000       0.00000000 </v>
   <v>       0.12500000       0.00000000       0.00000000 </v>
   <v>       0.25000000       0.00000000       0.00000000 </v>
   <v>       0.37500000       0.00000000       0.00000000 </v>
   <v>       0.50000000       0.00000000       0.00000000 </v>
   <v>       0.00000000       0.12500000       0.00000000 </v>
   <v>       0.12500000       0.12500000       0.00000000 </v>
   <v>       0.25000000       0.12500000       0.00000000 </v>
   <v>       0.37500000       0.12500000       0.00000000 </v>
   <v>       0.50000000       0.12500000       0.00000000 </v>
   <v>      -0.37500000       0.12500000       0.00000000 </v>
   <v>      -0.25000000       0.12500000       0.00000000 </v>
   <v>      -0.12500000       0.12500000       0.00000000 </v>
   <v>       0.00000000       0.25000000       0.00000000 </v>
   <v>       0.12500000       0.25000000       0.00000000 </v>
   <v>       0.25000000       0.25000000       0.00000000 </v>
   <v>       0.37500000       0.25000000       0.00000000 </v>
   <v>       0.50000000       0.25000000       0.00000000 </v>
   <v>      -0.37500000       0.25000000       0.00000000 </v>
   <v>      -0.25000000       0.25000000       0.00000000 </v>
   <v>      -0.12500000       0.25000000       0.00000000 </v>
   <v>      -0.00000000       0.37500000       0.00000000 </v>
   <v>       0.12500000       0.37500000       0.00000000 </v>
   <v>       0.25000000       0.37500000       0.00000000 </v>
   <v>       0.37500000       0.37500000       0.00000000 </v>
   <v>       0.50000000       0.37500000       0.00000000 </v>
   <v>      -0.37500000       0.37500000       0.00000000 </v>
   <v>      -0.25000000       0.37500000       0.00000000 </v>
   <v>      -0.12500000       0.37500000       0.00000000 </v>
   <v>       0.00000000       0.50000000       0.00000000 </v>
   <v>       0.12500000       0.50000000       0.00000000 </v>
   <v>       0.25000000       0.50000000       0.00000000 </v>
   <v>       0.37500000       0.50000000       0.00000000 </v>
   <v>       0.50000000       0.50000000       0.00000000 </v>
  </varray>
  <varray name="weights" >
   <v>       0.01562500 </v>
   <v>       0.03125000 </v>
   <v>       0.03125000 </v>
   <v>       0.03125000 </v>
   <v>       0.01562500 </v>
   <v>       0.03125000 </v>
   <v>       0.03125000 </v>
   <v>       0.03125000 </v>
   <v>       0.03125000 </v>
   <v>       0.03125000 </v>
   <v>       0.03125000 </v>
   <v>       0.03125000 </v>
   <v>       0.03125000 </v>
   <v>       0.03125000 </v>
   <v>       0.03125000 </v>
   <v>       0.03125000 </v>
   <v>       0.03125000 </v>
   <v>       0.03125000 </v>
   <v>       0.03125000 </v>
   <v>       0.03125000 </v>
   <v>       0.03125000 </v>
   <v>       0.03125000 </v>
   <v>       0.03125000 </v>
   <v>       0.03125000 </v>
   <v>       0.03125000 </v>
   <v>       0.03125000 </v>
   <v>       0.03125000 </v>
   <v>       0.03125000 </v>
   <v>       0.03125000 </v>
   <v>       0.01562500 </v>
   <v>       0.03125000 </v>
   <v>       0.03125000 </v>
   <v>       0.03125000 </v>
   <v>       0.01562500 </v>
  </varray>
 </kpoints>
 <parameters>
  <separator name="general" >
   <i type="string" name="SYSTEM">unknown system</i>
   <i type="logical" name="LCOMPAT"> F  </i>
  </separator>
  <separator name="electronic" >
   <i type="string" name="PREC">normal</i>
   <i name="ENMAX">    280.00000000</i>
   <i name="ENAUG">    373.43800000</i>
   <i name="EDIFF">      0.00010000</i>
   <i type="int" name="IALGO">    38</i>
   <i type="int" name="IWAVPR">    11</i>
   <i type="int" name="NBANDS">    96</i>
   <i name="NELECT">    159.00000000</i>
   <i type="int" name="TURBO">     0</i>
   <i type="int" name="IRESTART">     0</i>
   <i type="int" name="NREBOOT">     0</i>
   <i type="int" name="NMIN">     0</i>
   <i name="EREF">      0.00000000</i>
   <separator name="electronic smearing" >
    <i type="int" name="ISMEAR">     0</i>
    <i name="SIGMA">      0.20000000</i>
    <i name="KSPACING">      0.50000000</i>
    <i type="logical" name="KGAMMA"> T  </i>
   </separator>
   <separator name="electronic projectors" >
    <i type="logical" name="LREAL"> F  </i>
    <v name="ROPT">      0.00000000      0.00000000      0.00000000      0.00000000</v>
    <i type="int" name="LMAXPAW">  -100</i>
    <i type="int" name="LMAXMIX">     2</i>
    <i type="logical" name="NLSPLINE"> F  </i>
   </separator>
   <separator name="electronic startup" >
    <i type="int" name="ISTART">     0</i>
    <i type="int" name="ICHARG">     2</i>
    <i type="int" name="INIWAV">     1</i>
   </separator>
   <separator name="electronic spin" >
    <i type="int" name="ISPIN">     1</i>
    <i type="logical" name="LNONCOLLINEAR"> F  </i>
    <v name="MAGMOM">      1.00000000      1.00000000      1.00000000      1.00000000      1.00000000      1.00000000      1.00000000      1.00000000      1.00000000      1.00000000      1.00000000      1.00000000      1.00000000      1.00000000      1.00000000      1.00000000      1.00000000      1.00000000      1.00000000      1.00000000
      1.00000000      1.00000000      1.00000000      1.00000000      1.00000000      1.00000000      1.00000000</v>
    <i name="NUPDOWN">     -1.00000000</i>
    <i type="logical" name="LSORBIT"> F  </i>
    <v name="SAXIS">      0.00000000      0.00000000      1.00000000</v>
    <i type="logical" name="LSPIRAL"> F  </i>
    <v name="QSPIRAL">      0.00000000      0.00000000      0.00000000</v>
    <i type="logical" name="LZEROZ"> F  </i>
   </separator>
   <separator name="electronic exchange-correlation" >
    <i type="logical" name="LASPH"> F  </i>
    <i type="logical" name="LMETAGGA"> F  </i>
   </separator>
   <separator name="electronic convergence" >
    <i type="int" name="NELM">    60</i>
    <i type="int" name="NELMDL">    -5</i>
    <i type="int" name="NELMIN">     2</i>
    <i name="ENINI">    280.00000000</i>
    <separator name="electronic convergence detail" >
     <i type="logical" name="LDIAG"> T  </i>
     <i type="logical" name="LSUBROT"> F  </i>
     <i name="WEIMIN">      0.00100000</i>
     <i name="EBREAK">      0.00000026</i>
     <i name="DEPER">      0.30000000</i>
     <i type="int" name="NRMM">     4</i>
     <i name="TIME">      0.40000000</i>
    </separator>
   </separator>
   <separator name="electronic mixer" >
    <i name="AMIX">      0.40000000</i>
    <i name="BMIX">      1.00000000</i>
    <i name="AMIN">      0.10000000</i>
    <i name="AMIX_MAG">      1.60000000</i>
    <i name="BMIX_MAG">      1.00000000</i>
    <separator name="electronic mixer details" >
     <i type="int" name="IMIX">     4</i>
     <i type="logical" name="MIXFIRST"> F  </i>
     <i type="int" name="MAXMIX">   -45</i>
     <i name="WC">    100.00000000</i>
     <i type="int" name="INIMIX">     1</i>
     <i type="int" name="MIXPRE">     1</i>
     <i type="int" name="MREMOVE">     5</i>
    </separator>
   </separator>
   <separator name="electronic dipolcorrection" >
    <i type="logical" name="LDIPOL"> F  </i>
    <i type="logical" name="LMONO"> F  </i>
    <i type="int" name="IDIPOL">     0</i>
    <i name="EPSILON">      1.00000000</i>
    <v name="DIPOL">   -100.00000000   -100.00000000   -100.00000000</v>
    <i name="EFIELD">      0.00000000</i>
   </separator>
  </separator>
  <separator name="grids" >
   <i type="int" name="NGX">    42</i>
   <i type="int" name="NGY">    42</i>
   <i type="int" name="NGZ">   126</i>
   <i type="int" name="NGXF">    84</i>
   <i type="int" name="NGYF">    84</i>
   <i type="int" name="NGZF">   252</i>
   <i type="logical" name="ADDGRID"> F  </i>
  </separator>
  <separator name="ionic" >
   <i type="int" name="NSW">   100</i>
   <i type="int" name="IBRION">     1</i>
   <i type="int" name="ISIF">     3</i>
   <i name="PSTRESS">      0.00000000</i>
   <i name="EDIFFG">      0.00100000</i>
   <i type="int" name="NFREE">     0</i>
   <i name="POTIM">      0.50000000</i>
   <i name="SMASS">     -3.00000000</i>
   <i name="SCALEE">      1.00000000</i>
  </separator>
  <separator name="ionic md" >
   <i name="TEBEG">      0.00010000</i>
   <i name="TEEND">      0.00010000</i>
   <i type="int" name="NBLOCK">     1</i>
   <i type="int" name="KBLOCK">   100</i>
   <i type="int" name="NPACO">   256</i>
   <i name="APACO">     16.00000000</i>
  </separator>
  <separator name="symmetry" >
   <i type="int" name="ISYM">     0</i>
   <i name="SYMPREC">      0.00000001</i>
  </separator>
  <separator name="dos" >
   <i type="logical" name="LORBIT"> F  </i>
   <v name="RWIGS">     -1.00000000     -1.00000000     -1.00000000     -1.00000000</v>
   <i type="int" name="NEDOS">   301</i>
   <i name="EMIN">     10.00000000</i>
   <i name="EMAX">    -10.00000000</i>
   <i name="EFERMI">      0.00000000</i>
  </separator>
  <separator name="writing" >
   <i type="int" name="NWRITE">     2</i>
   <i type="logical" name="LWAVE"> F  </i>
   <i type="logical" name="LCHARG"> F  </i>
   <i type="logical" name="LPARD"> F  </i>
   <i type="logical" name="LVTOT"> F  </i>
   <i type="logical" name="LVHAR"> F  </i>
   <i type="logical" name="LELF"> F  </i>
   <i type="logical" name="LOPTICS"> F  </i>
   <v name="STM">      0.00000000      0.00000000      0.00000000      0.00000000      0.00000000      0.00000000      0.00000000</v>
  </separator>
  <separator name="performance" >
   <i type="int" name="NPAR">    32</i>
   <i type="int" name="NSIM">     4</i>
   <i type="int" name="NBLK">    -1</i>
   <i type="logical" name="LPLANE"> F  </i>
   <i type="logical" name="LSCALAPACK"> T  </i>
   <i type="logical" name="LSCAAWARE"> F  </i>
   <i type="logical" name="LSCALU"> F  </i>
   <i type="logical" name="LASYNC"> F  </i>
   <i type="logical" name="LORBITALREAL"> F  </i>
  </separator>
  <separator name="miscellaneous" >
   <i type="int" name="IDIOT">     3</i>
   <i type="logical" name="LMUSIC"> F  </i>
   <v name="POMASS">     50.94100000     95.94000000    183.85000000     32.06600000</v>
   <v name="DARWINR">      0.00000000      0.00000000      0.00000000      0.00000000</v>
   <v name="DARWINV">      1.00000000      1.00000000      1.00000000      1.00000000</v>
   <i type="logical" name="LCORR"> T  </i>
  </separator>
  <i type="logical" name="GGA_COMPAT"> T  </i>
  <i type="logical" name="LBERRY"> F  </i>
  <i type="int" name="ICORELEVEL">     0</i>
  <i type="logical" name="LDAU"> F  </i>
  <i type="int" name="I_CONSTRAINED_M">     0</i>
  <separator name="electronic exchange-correlation" >
   <i type="string" name="GGA">--</i>
   <i type="int" name="VOSKOWN">     0</i>
   <i type="logical" name="LHFCALC"> F  </i>
   <i type="string" name="PRECFOCK"></i>
   <i type="logical" name="LSYMGRAD"> F  </i>
   <i type="logical" name="LHFONE"> F  </i>
   <i type="logical" name="LRHFCALC"> F  </i>
   <i type="logical" name="LTHOMAS"> F  </i>
   <i type="logical" name="LMODELHF"> F  </i>
   <i name="ENCUT4O">     -1.00000000</i>
   <i type="int" name="EXXOEP">     0</i>
   <i type="int" name="FOURORBIT">     0</i>
   <i name="AEXX">      0.00000000</i>
   <i name="HFALPHA">      0.00000000</i>
   <i name="MCALPHA">      0.00000000</i>
   <i name="ALDAX">      1.00000000</i>
   <i name="AGGAX">      1.00000000</i>
   <i name="ALDAC">      1.00000000</i>
   <i name="AGGAC">      1.00000000</i>
   <i type="int" name="NKREDX">     1</i>
   <i type="int" name="NKREDY">     1</i>
   <i type="int" name="NKREDZ">     1</i>
   <i type="logical" name="SHIFTRED"> F  </i>
   <i type="logical" name="ODDONLY"> F  </i>
   <i type="logical" name="EVENONLY"> F  </i>
   <i type="int" name="LMAXFOCK">     0</i>
   <i type="int" name="NMAXFOCKAE">     0</i>
   <i type="logical" name="LFOCKAEDFT"> F  </i>
   <i name="HFSCREEN">      0.00000000</i>
   <i name="HFSCREENC">      0.00000000</i>
   <i type="int" name="NBANDSGWLOW">     0</i>
  </separator>
  <separator name="vdW DFT" >
   <i type="logical" name="LUSE_VDW"> F  </i>
   <i name="Zab_VDW">     -0.84910000</i>
   <i name="PARAM1">      0.12340000</i>
   <i name="PARAM2">      1.00000000</i>
   <i name="PARAM3">      0.00000000</i>
  </separator>
  <separator name="model GW" >
   <i type="int" name="MODEL_GW">     0</i>
   <i name="MODEL_EPS0">     58.26239943</i>
   <i name="MODEL_ALPHA">      1.00000000</i>
  </separator>
  <separator name="linear response parameters" >
   <i type="logical" name="LEPSILON"> F  </i>
   <i type="logical" name="LRPA"> F  </i>
   <i type="logical" name="LNABLA"> F  </i>
   <i type="logical" name="LVEL"> F  </i>
   <i type="int" name="KINTER">     0</i>
   <i name="CSHIFT">      0.10000000</i>
   <i name="OMEGAMAX">     -1.00000000</i>
   <i name="DEG_THRESHOLD">      0.00200000</i>
  </separator>
  <separator name="orbital magnetization" >
   <i type="logical" name="NUCIND"> F  </i>
   <v name="MAGPOS">      0.00000000      0.00000000      0.00000000</v>
   <i type="logical" name="LNICSALL"> T  </i>
   <i type="logical" name="ORBITALMAG"> F  </i>
   <i type="logical" name="LMAGBLOCH"> F  </i>
   <i type="logical" name="LCHIMAG"> F  </i>
   <i type="logical" name="LGAUGE"> T  </i>
   <i type="int" name="MAGATOM">     0</i>
   <v name="MAGDIPOL">      0.00000000      0.00000000      0.00000000</v>
   <v name="AVECCONST">      0.00000000      0.00000000      0.00000000</v>
  </separator>
  <separator name="response functions" >
   <i type="logical" name="LADDER"> F  </i>
   <i type="logical" name="LFXC"> F  </i>
   <i type="logical" name="LHARTREE"> T  </i>
   <i type="int" name="IBSE">     0</i>
   <v type="int" name="KPOINT">    -1     0     0     0</v>
   <i type="logical" name="LTCTE"> F  </i>
   <i type="logical" name="LTETE"> F  </i>
   <i type="logical" name="LTRIPLET"> F  </i>
   <i type="logical" name="LFXCEPS"> F  </i>
   <i type="logical" name="LFXHEG"> F  </i>
   <i type="int" name="NATURALO">     0</i>
   <i type="logical" name="L2ORDER"> F  </i>
   <i type="logical" name="LUSEW"> F  </i>
   <i name="ENCUTGW">     -2.00000000</i>
   <i name="ENCUTGWSOFT">     -2.00000000</i>
   <i name="ENCUTLF">     -1.00000000</i>
   <i type="int" name="LMAXMP2">    -1</i>
   <i name="SCISSOR">      0.00000000</i>
   <i type="int" name="NOMEGA">     0</i>
   <i type="int" name="NOMEGAR">     0</i>
   <i type="int" name="NBANDSGW">    -1</i>
   <i type="int" name="NBANDSO">    -1</i>
   <i type="int" name="NBANDSV">    -1</i>
   <i type="int" name="NELM">     1</i>
   <i type="int" name="NELMHF">     1</i>
   <i type="int" name="DIM">     3</i>
   <i type="int" name="ANTIRES">     0</i>
   <i name="OMEGAMAX">    -30.00000000</i>
   <i name="OMEGAMIN">    -30.00000000</i>
   <i name="OMEGATL">   -200.00000000</i>
   <i type="int" name="OMEGAGRID">     0</i>
   <i name="CSHIFT">     -0.10000000</i>
   <i type="logical" name="SELFENERGY"> F  </i>
   <i type="logical" name="LSPECTRAL"> F  </i>
   <i type="logical" name="LSPECTRALGW"> F  </i>
   <i type="logical" name="LSINGLES"> F  </i>
   <i type="logical" name="LFERMIGW"> F  </i>
   <i type="logical" name="ODDONLYGW"> F  </i>
   <i type="logical" name="EVENONLYGW"> F  </i>
   <i type="int" name="NKREDLFX">     1</i>
   <i type="int" name="NKREDLFY">     1</i>
   <i type="int" name="NKREDLFZ">     1</i>
   <i type="int" name="MAXMEM">  1800</i>
   <i type="int" name="TELESCOPE">     0</i>
   <i type="int" name="TAUPAR">     1</i>
   <i type="int" name="OMEGAPAR">    -1</i>
   <i name="LAMBDA">      1.00000000</i>
  </separator>
  <separator name="External order field" >
   <i name="OFIELD_KAPPA">      0.00000000</i>
   <v name="OFIELD_K">      0.00000000      0.00000000      0.00000000</v>
   <i name="OFIELD_Q6_NEAR">      0.00000000</i>
   <i name="OFIELD_Q6_FAR">      0.00000000</i>
   <i name="OFIELD_A">      0.00000000</i>
  </separator>
 </parameters>
 <atominfo>
  <atoms>      27 </atoms>
  <types>       4 </types>
  <array name="atoms" >
   <dimension dim="1">ion</dimension>
   <field type="string">element</field>
   <field type="int">atomtype</field>
   <set>
    <rc><c>V </c><c>   1</c></rc>
    <rc><c>V </c><c>   1</c></rc>
    <rc><c>V </c><c>   1</c></rc>
    <rc><c>Mo</c><c>   2</c></rc>
    <rc><c>Mo</c><c>   2</c></rc>
    <rc><c>Mo</c><c>   2</c></rc>
    <rc><c>W </c><c>   3</c></rc>
    <rc><c>W </c><c>   3</c></rc>
    <rc><c>W </c><c>   3</c></rc>
    <rc><c>S </c><c>   4</c></rc>
    <rc><c>S </c><c>   4</c></rc>
    <rc><c>S </c><c>   4</c></rc>
    <rc><c>S </c><c>   4</c></rc>
    <rc><c>S </c><c>   4</c></rc>
    <rc><c>S </c><c>   4</c></rc>
    <rc><c>S </c><c>   4</c></rc>
    <rc><c>S </c><c>   4</c></rc>
    <rc><c>S </c><c>   4</c></rc>
    <rc><c>S </c><c>   4</c></rc>
    <rc><c>S </c><c>   4</c></rc>
    <rc><c>S </c><c>   4</c></rc>
    <rc><c>S </c><c>   4</c></rc>
    <rc><c>S </c><c>   4</c></rc>
    <rc><c>S </c><c>   4</c></rc>
    <rc><c>S </c><c>   4</c></rc>
    <rc><c>S </c><c>   4</c></rc>
    <rc><c>S </c><c>   4</c></rc>
   </set>
  </array>
  <array name="atomtypes" >
   <dimension dim="1">type</dimension>
   <field type="int">atomspertype</field>
   <field type="string">element</field>
   <field>mass</field>
   <field>valence</field>
   <field type="string">pseudopotential</field>
   <set>
    <rc><c>   3</c><c>V </c><c>     50.94100000</c><c>      5.00000000</c><c> PAW_PBE V 08Apr2002                    </c></rc>
    <rc><c>   3</c><c>Mo</c><c>     95.94000000</c><c>      6.00000000</c><c> PAW_PBE Mo 08Apr2002                   </c></rc>
    <rc><c>   3</c><c>W </c><c>    183.85000000</c><c>      6.00000000</c><c> PAW_PBE W 08Apr2002                    </c></rc>
    <rc><c>  18</c><c>S </c><c>     32.06600000</c><c>      6.00000000</c><c>  PAW_PBE S 17Jan2003                   </c></rc>
   </set>
  </array>
 </atominfo>
 <structure name="initialpos" >
  <crystal>
   <varray name="basis" >
    <v>       8.66999996       5.03999989       0.00000000 </v>
    <v>      -8.66999982       5.04000013       0.00000000 </v>
    <v>       0.00000000       0.00000000      30.00000000 </v>
   </varray>
   <i name="volume">   2621.80797419 </i>
   <varray name="rec_basis" >
    <v>       0.05767013       0.09920635       0.00000000 </v>
    <v>      -0.05767013       0.09920635       0.00000000 </v>
    <v>       0.00000000       0.00000000       0.03333333 </v>
   </varray>
  </crystal>
  <varray name="positions" >
   <v>       0.00000000       0.00000000       0.00000000 </v>
   <v>       1.00000000       0.33333334       0.00000000 </v>
   <v>       0.00000000       0.66666669       0.00000000 </v>
   <v>       0.33333334       0.00000000       0.00000000 </v>
   <v>       0.33333334       0.33333334       0.00000000 </v>
   <v>       0.33333334       0.66666669       0.00000000 </v>
   <v>       0.66666669       0.00000000       0.00000000 </v>
   <v>       0.66666669       0.33333334       0.00000000 </v>
   <v>       0.66666669       0.66666669       0.00000000 </v>
   <v>       0.11068511       0.22244981       0.95539999 </v>
   <v>       0.22244981       0.11068511       0.04460000 </v>
   <v>       0.11068511       0.55578315       0.95539999 </v>
   <v>       0.22244981       0.44401845       0.04460000 </v>
   <v>       0.11068511       0.88911647       0.95539999 </v>
   <v>       0.22244981       0.77735180       0.04460000 </v>
   <v>       0.44401845       0.22244981       0.95539999 </v>
   <v>       0.55578315       0.11068511       0.04460000 </v>
   <v>       0.44401845       0.55578315       0.95539999 </v>
   <v>       0.55578315       0.44401845       0.04460000 </v>
   <v>       0.44401845       0.88911647       0.95539999 </v>
   <v>       0.55578315       0.77735180       0.04460000 </v>
   <v>       0.77735180       0.22244981       0.95539999 </v>
   <v>       0.88911647       0.11068511       0.04460000 </v>
   <v>       0.77735180       0.55578315       0.95539999 </v>
   <v>       0.88911647       0.44401845       0.04460000 </v>
   <v>       0.77735180       0.88911647       0.95539999 </v>
   <v>       0.88911647       0.77735180       0.04460000 </v>
  </varray>
 </structure>
 <calculation>
  <scstep>
   <time name="dav">   22.24   22.64</time>
   <time name="total">   22.30   22.70</time>
   <energy>
    <i name="alphaZ">     81.65567618 </i>
    <i name="ewald">  41891.19377234 </i>
    <i name="hartreedc"> -47723.83903790 </i>
    <i name="XCdc">   -242.92449831 </i>
    <i name="pawpsdc">   3467.42045192 </i>
    <i name="pawaedc">  -2871.19716117 </i>
    <i name="eentropy">     -0.41841843 </i>
    <i name="bandstr">   -140.48540793 </i>
    <i name="atom">   6761.44252427 </i>
    <i name="e_fr_energy">   1222.84790098 </i>
    <i name="e_wo_entrp">   1223.26631941 </i>
    <i name="e_0_energy">   1223.05711019 </i>
   </energy>
  </scstep>
  <scstep>
   <time name="dav">   33.20   33.78</time>
   <time name="total">   33.20   33.79</time>
   <energy>
    <i name="e_fr_energy">     31.39494298 </i>
    <i name="e_wo_entrp">     31.61000405 </i>
    <i name="e_0_energy">     31.50247352 </i>
   </energy>
  </scstep>
  <scstep>
   <time name="dav">   25.70   26.11</time>
   <time name="total">   25.70   26.12</time>
   <energy>
    <i name="e_fr_energy">   -196.87783276 </i>
    <i name="e_wo_entrp">   -196.66569638 </i>
    <i name="e_0_energy">   -196.77176457 </i>
   </energy>
  </scstep>
  <scstep>
   <time name="dav">   31.43   31.58</time>
   <time name="total">   31.43   31.58</time>
   <energy>
    <i name="e_fr_energy">   -209.14260452 </i>
    <i name="e_wo_entrp">   -208.88803960 </i>
    <i name="e_0_energy">   -209.01532206 </i>
   </energy>
  </scstep>
  <scstep>
   <time name="dav">   24.48   24.54</time>
   <time name="total">   25.03   25.10</time>
   <energy>
    <i name="e_fr_energy">   -209.39855807 </i>
    <i name="e_wo_entrp">   -209.14200225 </i>
    <i name="e_0_energy">   -209.27028016 </i>
   </energy>
  </scstep>
  <scstep>
   <time name="dav">   31.78   31.86</time>
   <time name="total">   32.37   32.45</time>
   <energy>
    <i name="e_fr_energy">   -239.83770252 </i>
    <i name="e_wo_entrp">   -239.57588941 </i>
    <i name="e_0_energy">   -239.70679597 </i>
   </energy>
  </scstep>
  <scstep>
   <time name="dav">   37.68   37.77</time>
   <time name="total">   38.34   38.44</time>
   <energy>
    <i name="e_fr_energy">   -188.24172464 </i>
    <i name="e_wo_entrp">   -187.93843896 </i>
    <i name="e_0_energy">   -188.09008180 </i>
   </energy>
  </scstep>
  <scstep>
   <time name="dav">   32.01   32.09</time>
   <time name="total">   32.60   32.69</time>
   <energy>
    <i name="e_fr_energy">   -190.88373015 </i>
    <i name="e_wo_entrp">   -190.57388417 </i>
    <i name="e_0_energy">   -190.72880716 </i>
   </energy>
  </scstep>
  <scstep>
   <time name="dav">   31.47   31.54</time>
   <time name="total">   32.05   32.14</time>
   <energy>
    <i name="e_fr_energy">   -188.43495386 </i>
    <i name="e_wo_entrp">   -188.10948021 </i>
    <i name="e_0_energy">   -188.27221703 </i>
   </energy>
  </scstep>
  <scstep>
   <time name="dav">   31.36   31.43</time>
   <time name="total">   31.94   32.03</time>
   <energy>
    <i name="e_fr_energy">   -186.96046737 </i>
    <i name="e_wo_entrp">   -186.60677240 </i>
    <i name="e_0_energy">   -186.78361988 </i>
   </energy>
  </scstep>
  <scstep>
   <time name="dav">   29.33   29.40</time>
   <time name="total">   29.92   30.00</time>
   <energy>
    <i name="e_fr_energy">   -186.87003687 </i>
    <i name="e_wo_entrp">   -186.51963640 </i>
    <i name="e_0_energy">   -186.69483663 </i>
   </energy>
  </scstep>
  <scstep>
   <time name="dav">   31.49   31.57</time>
   <time name="total">   32.08   32.16</time>
   <energy>
    <i name="e_fr_energy">   -186.91194125 </i>
    <i name="e_wo_entrp">   -186.56680725 </i>
    <i name="e_0_energy">   -186.73937425 </i>
   </energy>
  </scstep>
  <scstep>
   <time name="dav">   30.11   30.18</time>
   <time name="total">   30.70   30.78</time>
   <energy>
    <i name="e_fr_energy">   -186.84005245 </i>
    <i name="e_wo_entrp">   -186.49387378 </i>
    <i name="e_0_energy">   -186.66696312 </i>
   </energy>
  </scstep>
  <scstep>
   <time name="dav">   31.32   31.40</time>
   <time name="total">   31.91   31.99</time>
   <energy>
    <i name="e_fr_energy">   -186.83319912 </i>
    <i name="e_wo_entrp">   -186.48745734 </i>
    <i name="e_0_energy">   -186.66032823 </i>
   </energy>
  </scstep>
  <scstep>
   <time name="dav">   31.33   31.40</time>
   <time name="total">   31.92   32.00</time>
   <energy>
    <i name="e_fr_energy">   -186.83330242 </i>
    <i name="e_wo_entrp">   -186.48821580 </i>
    <i name="e_0_energy">   -186.66075911 </i>
   </energy>
  </scstep>
  <scstep>
   <time name="dav">   31.17   31.24</time>
   <time name="total">   31.75   31.83</time>
   <energy>
    <i name="e_fr_energy">   -186.82831029 </i>
    <i name="e_wo_entrp">   -186.48318977 </i>
    <i name="e_0_energy">   -186.65575003 </i>
   </energy>
  </scstep>
  <scstep>
   <time name="dav">   31.57   31.64</time>
   <time name="total">   32.15   32.24</time>
   <energy>
    <i name="e_fr_energy">   -186.82763447 </i>
    <i name="e_wo_entrp">   -186.48189934 </i>
    <i name="e_0_energy">   -186.65476690 </i>
   </energy>
  </scstep>
  <scstep>
   <time name="dav">   29.07   29.14</time>
   <time name="total">   29.65   29.73</time>
   <energy>
    <i name="e_fr_energy">   -186.82714034 </i>
    <i name="e_wo_entrp">   -186.48139557 </i>
    <i name="e_0_energy">   -186.65426796 </i>
   </energy>
  </scstep>
  <scstep>
   <time name="dav">   29.28   29.35</time>
   <time name="total">   29.87   29.94</time>
   <energy>
    <i name="e_fr_energy">   -186.82712369 </i>
    <i name="e_wo_entrp">   -186.48210964 </i>
    <i name="e_0_energy">   -186.65461667 </i>
   </energy>
  </scstep>
  <scstep>
   <time name="dav">   28.82   28.89</time>
   <time name="total">   29.41   29.48</time>
   <energy>
    <i name="e_fr_energy">   -186.82837024 </i>
    <i name="e_wo_entrp">   -186.48301392 </i>
    <i name="e_0_energy">   -186.65569208 </i>
   </energy>
  </scstep>
  <scstep>
   <time name="dav">   22.30   22.36</time>
   <time name="total">   22.89   22.95</time>
   <energy>
    <i name="e_fr_energy">   -186.82909043 </i>
    <i name="e_wo_entrp">   -186.48387127 </i>
    <i name="e_0_energy">   -186.65648085 </i>
   </energy>
  </scstep>
  <scstep>
   <time name="dav">   20.59   20.64</time>
   <time name="total">   21.18   21.23</time>
   <energy>
    <i name="e_fr_energy">   -186.82958282 </i>
    <i name="e_wo_entrp">   -186.48452453 </i>
    <i name="e_0_energy">   -186.65705367 </i>
   </energy>
  </scstep>
  <scstep>
   <time name="dav">   19.85   19.90</time>
   <time name="total">   20.44   20.49</time>
   <energy>
    <i name="e_fr_energy">   -186.83052968 </i>
    <i name="e_wo_entrp">   -186.48542069 </i>
    <i name="e_0_energy">   -186.65797518 </i>
   </energy>
  </scstep>
  <scstep>
   <time name="dav">   19.37   19.42</time>
   <time name="total">   19.96   20.01</time>
   <energy>
    <i name="e_fr_energy">   -186.83103928 </i>
    <i name="e_wo_entrp">   -186.48593316 </i>
    <i name="e_0_energy">   -186.65848622 </i>
   </energy>
  </scstep>
  <scstep>
   <time name="dav">   18.04   18.08</time>
   <time name="total">   18.63   18.68</time>
   <energy>
    <i name="e_fr_energy">   -186.83130309 </i>
    <i name="e_wo_entrp">   -186.48620986 </i>
    <i name="e_0_energy">   -186.65875647 </i>
   </energy>
  </scstep>
  <scstep>
   <time name="dav">   17.63   17.68</time>
   <time name="total">   18.22   18.27</time>
   <energy>
    <i name="e_fr_energy">   -186.83166137 </i>
    <i name="e_wo_entrp">   -186.48654719 </i>
    <i name="e_0_energy">   -186.65910428 </i>
   </energy>
  </scstep>
  <scstep>
   <time name="dav">   16.15   16.19</time>
   <time name="total">   16.74   16.79</time>
   <energy>
    <i name="e_fr_energy">   -186.83178844 </i>
    <i name="e_wo_entrp">   -186.48667527 </i>
    <i name="e_0_energy">   -186.65923186 </i>
   </energy>
  </scstep>
  <scstep>
   <time name="dav">   15.99   16.03</time>
   <time name="total">   16.03   16.08</time>
   <energy>
    <i name="alphaZ">     81.65567618 </i>
    <i name="ewald">  41891.19377234 </i>
    <i name="hartreedc"> -47833.65557487 </i>
    <i name="XCdc">   -231.60658862 </i>
    <i name="pawpsdc">   4192.01612569 </i>
    <i name="pawaedc">  -3610.01717924 </i>
    <i name="eentropy">     -0.34511234 </i>
    <i name="bandstr">  -1437.51549330 </i>
    <i name="atom">   6761.44252427 </i>
    <i name="e_fr_energy">   -186.83184989 </i>
    <i name="e_wo_entrp">   -186.48673755 </i>
    <i name="e_0_energy">   -186.65929372 </i>
   </energy>
  </scstep>
  <structure>
   <crystal>
    <varray name="basis" >
     <v>       8.66999996       5.03999989       0.00000000 </v>
     <v>      -8.66999982       5.04000013       0.00000000 </v>
     <v>       0.00000000       0.00000000      30.00000000 </v>
    </varray>
    <i name="volume">   2621.80797419 </i>
    <varray name="rec_basis" >
     <v>       0.05767013       0.09920635       0.00000000 </v>
     <v>      -0.05767013       0.09920635       0.00000000 </v>
     <v>       0.00000000       0.00000000       0.03333333 </v>
    </varray>
   </crystal>
   <varray name="positions" >
    <v>       0.00000000       0.00000000       0.00000000 </v>
    <v>       1.00000000       0.33333334       0.00000000 </v>
    <v>       0.00000000       0.66666669       0.00000000 </v>
    <v>       0.33333334       0.00000000       0.00000000 </v>
    <v>       0.33333334       0.33333334       0.00000000 </v>
    <v>       0.33333334       0.66666669       0.00000000 </v>
    <v>       0.66666669       0.00000000       0.00000000 </v>
    <v>       0.66666669       0.33333334       0.00000000 </v>
    <v>       0.66666669       0.66666669       0.00000000 </v>
    <v>       0.11068511       0.22244981       0.95539999 </v>
    <v>       0.22244981       0.11068511       0.04460000 </v>
    <v>       0.11068511       0.55578315       0.95539999 </v>
    <v>       0.22244981       0.44401845       0.04460000 </v>
    <v>       0.11068511       0.88911647       0.95539999 </v>
    <v>       0.22244981       0.77735180       0.04460000 </v>
    <v>       0.44401845       0.22244981       0.95539999 </v>
    <v>       0.55578315       0.11068511       0.04460000 </v>
    <v>       0.44401845       0.55578315       0.95539999 </v>
    <v>       0.55578315       0.44401845       0.04460000 </v>
    <v>       0.44401845       0.88911647       0.95539999 </v>
    <v>       0.55578315       0.77735180       0.04460000 </v>
    <v>       0.77735180       0.22244981       0.95539999 </v>
    <v>       0.88911647       0.11068511       0.04460000 </v>
    <v>       0.77735180       0.55578315       0.95539999 </v>
    <v>       0.88911647       0.44401845       0.04460000 </v>
    <v>       0.77735180       0.88911647       0.95539999 </v>
    <v>       0.88911647       0.77735180       0.04460000 </v>
   </varray>
  </structure>
  <varray name="forces" >
   <v>       0.21010255       0.35032419      -0.00125410 </v>
   <v>       0.21013592       0.35027562      -0.00128848 </v>
   <v>       0.21013702       0.35025502      -0.00127016 </v>
   <v>      -0.01642957      -0.02428555      -0.10816807 </v>
   <v>      -0.01637965      -0.02433875      -0.10817305 </v>
   <v>      -0.01635286      -0.02437728      -0.10818426 </v>
   <v>      -0.22395507      -0.38878482       0.15295423 </v>
   <v>      -0.22388974      -0.38889702       0.15295710 </v>
   <v>      -0.22383927      -0.38887732       0.15296913 </v>
   <v>      -0.31822819      -0.65880939      -1.43065123 </v>
   <v>      -0.52780582      -0.69419826       2.13690791 </v>
   <v>      -0.31816206      -0.65885555      -1.43058839 </v>
   <v>      -0.52790760      -0.69421100       2.13690177 </v>
   <v>      -0.31810439      -0.65882032      -1.43058784 </v>
   <v>      -0.52789197      -0.69417587       2.13686620 </v>
   <v>       0.18860498       0.12614153      -2.91944785 </v>
   <v>      -0.02948698       0.17771670       2.92610498 </v>
   <v>       0.18856884       0.12623488      -2.91943788 </v>
   <v>      -0.02954790       0.17781883       2.92613254 </v>
   <v>       0.18853625       0.12622430      -2.91941050 </v>
   <v>      -0.02948768       0.17778261       2.92610385 </v>
   <v>       0.47692917       0.58561680      -2.14100804 </v>
   <v>       0.24021696       0.52633307       1.38453143 </v>
   <v>       0.47685601       0.58566655      -2.14100966 </v>
   <v>       0.24026608       0.52638750       1.38452005 </v>
   <v>       0.47685036       0.58558423      -2.14102198 </v>
   <v>       0.24026459       0.52626931       1.38455228 </v>
  </varray>
  <varray name="stress" >
   <v>       7.26829520       0.11500123      -1.62686031 </v>
   <v>       0.11500141       4.47788468      -0.10591466 </v>
   <v>      -1.62686043      -0.10591468      30.32439040 </v>
  </varray>
  <energy>
   <i name="e_fr_energy">   -186.83184989 </i>
   <i name="e_wo_entrp">   -186.65929372 </i>
   <i name="e_0_energy">     -0.34511234 </i>
  </energy>
  <time name="totalsc">  809.79  813.17</time>
 </calculation>
 <calculation>
  <scstep>
   <time name="dav">   20.81   20.86</time>
   <time name="total">   21.40   21.45</time>
   <energy>
    <i name="alphaZ">     78.92316648 </i>
    <i name="ewald">  39379.76869228 </i>
    <i name="hartreedc"> -45337.10214222 </i>
    <i name="XCdc">   -239.07244745 </i>
    <i name="pawpsdc">   4192.01010236 </i>
    <i name="pawaedc">  -3610.01103478 </i>
    <i name="eentropy">     -0.28518021 </i>
    <i name="bandstr">  -1412.74730134 </i>
    <i name="atom">   6761.44252427 </i>
    <i name="e_fr_energy">   -187.07362060 </i>
    <i name="e_wo_entrp">   -186.78844039 </i>
    <i name="e_0_energy">   -186.93103049 </i>
   </energy>
  </scstep>
  <scstep>
   <time name="dav">   29.00   29.07</time>
   <time name="total">   29.58   29.66</time>
   <energy>
    <i name="e_fr_energy">   -189.36455554 </i>
    <i name="e_wo_entrp">   -189.04375447 </i>
    <i name="e_0_energy">   -189.20415500 </i>
   </energy>
  </scstep>
  <scstep>
   <time name="dav">   31.08   31.16</time>
   <time name="total">   31.67   31.75</time>
   <energy>
    <i name="e_fr_energy">   -189.28255935 </i>
    <i name="e_wo_entrp">   -189.01604535 </i>
    <i name="e_0_energy">   -189.14930235 </i>
   </energy>
  </scstep>
  <scstep>
   <time name="dav">   29.73   29.81</time>
   <time name="total">   30.32   30.40</time>
   <energy>
    <i name="e_fr_energy">   -188.74415592 </i>
    <i name="e_wo_entrp">   -188.46187665 </i>
    <i name="e_0_energy">   -188.60301629 </i>
   </energy>
  </scstep>
  <scstep>
   <time name="dav">   28.98   29.05</time>
   <time name="total">   29.57   29.64</time>
   <energy>
    <i name="e_fr_energy">   -188.70889513 </i>
    <i name="e_wo_entrp">   -188.42194425 </i>
    <i name="e_0_energy">   -188.56541969 </i>
   </energy>
  </scstep>
  <scstep>
   <time name="dav">   27.98   28.05</time>
   <time name="total">   28.57   28.64</time>
   <energy>
    <i name="e_fr_energy">   -188.69107167 </i>
    <i name="e_wo_entrp">   -188.40775660 </i>
    <i name="e_0_energy">   -188.54941414 </i>
   </energy>
  </scstep>
  <scstep>
   <time name="dav">   30.13   30.20</time>
   <time name="total">   30.72   30.80</time>
   <energy>
    <i name="e_fr_energy">   -188.67932581 </i>
    <i name="e_wo_entrp">   -188.39603548 </i>
    <i name="e_0_energy">   -188.53768065 </i>
   </energy>
  </scstep>
  <scstep>
   <time name="dav">   30.95   31.02</time>
   <time name="total">   31.54   31.63</time>
   <energy>
    <i name="e_fr_energy">   -188.67935781 </i>
    <i name="e_wo_entrp">   -188.39626748 </i>
    <i name="e_0_energy">   -188.53781264 </i>
   </energy>
  </scstep>
  <scstep>
   <time name="dav">   31.42   31.49</time>
   <time name="total">   32.01   32.09</time>
   <energy>
    <i name="e_fr_energy">   -188.67730765 </i>
    <i name="e_wo_entrp">   -188.39499452 </i>
    <i name="e_0_energy">   -188.53615108 </i>
   </energy>
  </scstep>
  <scstep>
   <time name="dav">   30.37   30.44</time>
   <time name="total">   30.95   31.03</time>
   <energy>
    <i name="e_fr_energy">   -188.67746179 </i>
    <i name="e_wo_entrp">   -188.39515436 </i>
    <i name="e_0_energy">   -188.53630807 </i>
   </energy>
  </scstep>
  <scstep>
   <time name="dav">   26.48   26.54</time>
   <time name="total">   27.07   27.14</time>
   <energy>
    <i name="e_fr_energy">   -188.67731497 </i>
    <i name="e_wo_entrp">   -188.39500415 </i>
    <i name="e_0_energy">   -188.53615956 </i>
   </energy>
  </scstep>
  <scstep>
   <time name="dav">   22.35   22.40</time>
   <time name="total">   22.93   23.00</time>
   <energy>
    <i name="e_fr_energy">   -188.67742343 </i>
    <i name="e_wo_entrp">   -188.39509710 </i>
    <i name="e_0_energy">   -188.53626026 </i>
   </energy>
  </scstep>
  <scstep>
   <time name="dav">   21.71   21.76</time>
   <time name="total">   21.75   21.81</time>
   <energy>
    <i name="alphaZ">     78.92316648 </i>
    <i name="ewald">  39379.76869228 </i>
    <i name="hartreedc"> -45347.91530002 </i>
    <i name="XCdc">   -237.98415554 </i>
    <i name="pawpsdc">   3949.39762506 </i>
    <i name="pawaedc">  -3363.89068831 </i>
    <i name="eentropy">     -0.28234581 </i>
    <i name="bandstr">  -1408.13700645 </i>
    <i name="atom">   6761.44252427 </i>
    <i name="e_fr_energy">   -188.67748804 </i>
    <i name="e_wo_entrp">   -188.39514223 </i>
    <i name="e_0_energy">   -188.53631514 </i>
   </energy>
  </scstep>
  <structure>
   <crystal>
    <varray name="basis" >
     <v>       8.85594545       5.10890259       0.00000000 </v>
     <v>      -8.85255592       5.10307228       0.00000000 </v>
     <v>       0.00000000       0.00000000      30.00000000 </v>
    </varray>
    <i name="volume">   2712.58126716 </i>
    <varray name="rec_basis" >
     <v>       0.05643782       0.09790552       0.00000000 </v>
     <v>      -0.05650230       0.09794301       0.00000000 </v>
     <v>       0.00000000       0.00000000       0.03333333 </v>
    </varray>
   </crystal>
   <varray name="positions" >
    <v>       0.00226118       0.00109210      -0.00000202 </v>
    <v>       1.00226104       0.33442512      -0.00000207 </v>
    <v>       0.00226095       0.66775836      -0.00000204 </v>
    <v>       0.33317140      -0.00007052      -0.00017394 </v>
    <v>       0.33317129       0.33326243      -0.00017395 </v>
    <v>       0.33317118       0.66659551      -0.00017397 </v>
    <v>       0.66418289      -0.00123764       0.00024596 </v>
    <v>       0.66418254       0.33209499       0.00024597 </v>
    <v>       0.66418277       0.66542829       0.00024599 </v>
    <v>       0.10664670       0.22018212       0.95309938 </v>
    <v>       0.21765895       0.10883113       0.04803634 </v>
    <v>       0.10664666       0.55351506       0.95309948 </v>
    <v>       0.21765861       0.44216470       0.04803633 </v>
    <v>       0.10664699       0.88684838       0.95309948 </v>
    <v>       0.21765882       0.77549817       0.04803627 </v>
    <v>       0.44514689       0.22252879       0.95070526 </v>
    <v>       0.55655166       0.11161770       0.04930543 </v>
    <v>       0.44514724       0.55586268       0.95070528 </v>
    <v>       0.55655198       0.44495170       0.04930548 </v>
    <v>       0.44514710       0.88919603       0.95070532 </v>
    <v>       0.55655198       0.77828470       0.04930543 </v>
    <v>       0.78148144       0.22392566       0.95195706 </v>
    <v>       0.89230381       0.11253581       0.04682645 </v>
    <v>       0.78148147       0.55725945       0.95195706 </v>
    <v>       0.89230420       0.44586927       0.04682643 </v>
    <v>       0.78148106       0.89059239       0.95195704 </v>
    <v>       0.89230363       0.77920206       0.04682648 </v>
   </varray>
  </structure>
  <varray name="forces" >
   <v>       0.18312242       0.31562230       0.06810479 </v>
   <v>       0.17841739       0.31999206       0.06791881 </v>
   <v>       0.18367314       0.31729695       0.06787481 </v>
   <v>       0.13688477       0.23118625      -0.01981134 </v>
   <v>       0.13306928       0.23760719      -0.02000604 </v>
   <v>       0.13214227       0.23256636      -0.01968391 </v>
   <v>      -0.27731588      -0.48626292      -0.08571473 </v>
   <v>      -0.27771846      -0.48190695      -0.08634899 </v>
   <v>      -0.27589350      -0.48626956      -0.08597158 </v>
   <v>      -0.00877154      -0.04084113      -0.02870030 </v>
   <v>      -0.03519378      -0.07724503       0.02474353 </v>
   <v>      -0.00920670      -0.04168081      -0.02776929 </v>
   <v>      -0.03555302      -0.07844659       0.02421065 </v>
   <v>      -0.00572132      -0.04335373      -0.02861720 </v>
   <v>      -0.03625632      -0.07954596       0.02366929 </v>
   <v>       0.05711941       0.11140444      -0.17156162 </v>
   <v>       0.06152864       0.08451739       0.15652063 </v>
   <v>       0.05752893       0.11168399      -0.17197687 </v>
   <v>       0.06075677       0.08507212       0.15691504 </v>
   <v>       0.05733623       0.11134486      -0.17251466 </v>
   <v>       0.06174964       0.08474444       0.15557950 </v>
   <v>      -0.05615198      -0.06908896       0.27909498 </v>
   <v>      -0.05857772      -0.07326432      -0.22099273 </v>
   <v>      -0.05698528      -0.06765629       0.27986824 </v>
   <v>      -0.05721859      -0.07191601      -0.22161976 </v>
   <v>      -0.05738769      -0.07063516       0.27859035 </v>
   <v>      -0.05537709      -0.07492494      -0.22180162 </v>
  </varray>
  <varray name="stress" >
   <v>     -19.93037689      -0.05873133      -0.06837986 </v>
   <v>      -0.05873118     -19.55933306      -0.19171414 </v>
   <v>      -0.06838005      -0.19171412      -1.76145968 </v>
  </varray>
  <energy>
   <i name="e_fr_energy">   -188.67748804 </i>
   <i name="e_wo_entrp">   -188.53631514 </i>
   <i name="e_0_energy">     -0.28234581 </i>
  </energy>
  <time name="totalsc">  409.39  410.47</time>
 </calculation>
 <calculation>
  <scstep>
   <time name="dav">   20.83   20.88</time>
   <time name="total">   21.41   21.47</time>
   <energy>
    <i name="alphaZ">     82.35376022 </i>
    <i name="ewald">  41306.46171385 </i>
    <i name="hartreedc"> -47305.30106085 </i>
    <i name="XCdc">   -233.85474750 </i>
    <i name="pawpsdc">   3949.14268440 </i>
    <i name="pawaedc">  -3363.63375799 </i>
    <i name="eentropy">     -0.23691851 </i>
    <i name="bandstr">  -1386.96442167 </i>
    <i name="atom">   6761.44252427 </i>
    <i name="e_fr_energy">   -190.59022377 </i>
    <i name="e_wo_entrp">   -190.35330526 </i>
    <i name="e_0_energy">   -190.47176451 </i>
   </energy>
  </scstep>
  <scstep>
   <time name="dav">   31.41   31.49</time>
   <time name="total">   32.00   32.08</time>
   <energy>
    <i name="e_fr_energy">   -190.43626104 </i>
    <i name="e_wo_entrp">   -190.20851290 </i>
    <i name="e_0_energy">   -190.32238697 </i>
   </energy>
  </scstep>
  <scstep>
   <time name="dav">   31.27   31.34</time>
   <time name="total">   31.86   31.94</time>
   <energy>
    <i name="e_fr_energy">   -190.11542923 </i>
    <i name="e_wo_entrp">   -189.86350921 </i>
    <i name="e_0_energy">   -189.98946922 </i>
   </energy>
  </scstep>
  <scstep>
   <time name="dav">   31.34   31.41</time>
   <time name="total">   31.93   32.01</time>
   <energy>
    <i name="e_fr_energy">   -189.86537919 </i>
    <i name="e_wo_entrp">   -189.63323336 </i>
    <i name="e_0_energy">   -189.74930628 </i>
   </energy>
  </scstep>
  <scstep>
   <time name="dav">   31.34   31.42</time>
   <time name="total">   31.93   32.01</time>
   <energy>
    <i name="e_fr_energy">   -189.79729628 </i>
    <i name="e_wo_entrp">   -189.55892148 </i>
    <i name="e_0_energy">   -189.67810888 </i>
   </energy>
  </scstep>
  <scstep>
   <time name="dav">   29.44   29.51</time>
   <time name="total">   30.03   30.11</time>
   <energy>
    <i name="e_fr_energy">   -189.78045062 </i>
    <i name="e_wo_entrp">   -189.54263217 </i>
    <i name="e_0_energy">   -189.66154140 </i>
   </energy>
  </scstep>
  <scstep>
   <time name="dav">   30.42   30.50</time>
   <time name="total">   31.01   31.09</time>
   <energy>
    <i name="e_fr_energy">   -189.78252819 </i>
    <i name="e_wo_entrp">   -189.54445794 </i>
    <i name="e_0_energy">   -189.66349307 </i>
   </energy>
  </scstep>
  <scstep>
   <time name="dav">   31.16   31.24</time>
   <time name="total">   31.76   31.84</time>
   <energy>
    <i name="e_fr_energy">   -189.78063923 </i>
    <i name="e_wo_entrp">   -189.54250680 </i>
    <i name="e_0_energy">   -189.66157302 </i>
   </energy>
  </scstep>
  <scstep>
   <time name="dav">   28.48   28.55</time>
   <time name="total">   29.07   29.14</time>
   <energy>
    <i name="e_fr_energy">   -189.78103136 </i>
    <i name="e_wo_entrp">   -189.54265863 </i>
    <i name="e_0_energy">   -189.66184500 </i>
   </energy>
  </scstep>
  <scstep>
   <time name="dav">   26.13   26.20</time>
   <time name="total">   26.72   26.79</time>
   <energy>
    <i name="e_fr_energy">   -189.78094403 </i>
    <i name="e_wo_entrp">   -189.54256557 </i>
    <i name="e_0_energy">   -189.66175480 </i>
   </energy>
  </scstep>
  <scstep>
   <time name="dav">   21.96   22.02</time>
   <time name="total">   22.01   22.07</time>
   <energy>
    <i name="alphaZ">     82.35376022 </i>
    <i name="ewald">  41306.46171385 </i>
    <i name="hartreedc"> -47278.57600919 </i>
    <i name="XCdc">   -235.25064171 </i>
    <i name="pawpsdc">   4038.39800381 </i>
    <i name="pawaedc">  -3454.09453235 </i>
    <i name="eentropy">     -0.23839594 </i>
    <i name="bandstr">  -1410.27733318 </i>
    <i name="atom">   6761.44252427 </i>
    <i name="e_fr_energy">   -189.78091022 </i>
    <i name="e_wo_entrp">   -189.54251428 </i>
    <i name="e_0_energy">   -189.66171225 </i>
   </energy>
  </scstep>
  <structure>
   <crystal>
    <varray name="basis" >
     <v>       8.66745700       5.00181653       0.00000000 </v>
     <v>      -8.66477889       4.99721658       0.00000000 </v>
     <v>       0.00000000       0.00000000      30.00000000 </v>
    </varray>
    <i name="volume">   2599.58382420 </i>
    <varray name="rec_basis" >
     <v>       0.05766942       0.09999422       0.00000000 </v>
     <v>      -0.05772251       0.10002513       0.00000000 </v>
     <v>       0.00000000       0.00000000       0.03333333 </v>
    </varray>
   </crystal>
   <varray name="positions" >
    <v>       0.00296226       0.00144176       0.00003658 </v>
    <v>       1.00296488       0.33478658       0.00003642 </v>
    <v>       0.00296534       0.66811028       0.00003642 </v>
    <v>       0.33368757       0.00018295      -0.00018517 </v>
    <v>       0.33369448       0.33353026      -0.00018529 </v>
    <v>       0.33368509       0.66685584      -0.00018513 </v>
    <v>       0.66310739      -0.00178096       0.00019739 </v>
    <v>       0.66311390       0.33155931       0.00019703 </v>
    <v>       0.66310863       0.66488359       0.00019727 </v>
    <v>       0.10657030       0.22012254       0.95308311 </v>
    <v>       0.21749660       0.10873631       0.04805036 </v>
    <v>       0.10656845       0.55345450       0.95308374 </v>
    <v>       0.21749392       0.44206822       0.04805005 </v>
    <v>       0.10656934       0.88678169       0.95308326 </v>
    <v>       0.21749162       0.77540054       0.04804968 </v>
    <v>       0.44538714       0.22265943       0.95060803 </v>
    <v>       0.55675138       0.11169933       0.04939414 </v>
    <v>       0.44538834       0.55599339       0.95060781 </v>
    <v>       0.55675189       0.44503499       0.04939441 </v>
    <v>       0.44538745       0.88932637       0.95060755 </v>
    <v>       0.55675229       0.77836650       0.04939360 </v>
    <v>       0.78131256       0.22386456       0.95211523 </v>
    <v>       0.89212565       0.11247008       0.04670121 </v>
    <v>       0.78131418       0.55720153       0.95211566 </v>
    <v>       0.89212959       0.44580449       0.04670083 </v>
    <v>       0.78130842       0.89052989       0.95211492 </v>
    <v>       0.89212578       0.77913049       0.04670078 </v>
   </varray>
  </structure>
  <varray name="forces" >
   <v>       0.17458949       0.30471385       0.07491730 </v>
   <v>       0.17451337       0.30724918       0.07408968 </v>
   <v>       0.17606682       0.30640706       0.07439554 </v>
   <v>       0.18563110       0.31556811       0.00804032 </v>
   <v>       0.18109787       0.31968038       0.00787743 </v>
   <v>       0.18518265       0.32114767       0.00841930 </v>
   <v>      -0.30465646      -0.53944433      -0.10454713 </v>
   <v>      -0.30586308      -0.53573808      -0.10528246 </v>
   <v>      -0.30767607      -0.53811887      -0.10474371 </v>
   <v>      -0.03926593      -0.09589862      -0.48199471 </v>
   <v>      -0.06562657      -0.12638238       0.49888116 </v>
   <v>      -0.03772028      -0.09619279      -0.48357289 </v>
   <v>      -0.06635026      -0.12684511       0.49951805 </v>
   <v>      -0.03958175      -0.09489077      -0.48357537 </v>
   <v>      -0.06501344      -0.12613369       0.50059745 </v>
   <v>       0.01072050       0.02957105      -0.73870799 </v>
   <v>       0.01554382       0.00986367       0.73491928 </v>
   <v>       0.00996710       0.02970218      -0.73999142 </v>
   <v>       0.01614258       0.00948113       0.73595345 </v>
   <v>       0.01081755       0.02905246      -0.74015412 </v>
   <v>       0.01573589       0.00931793       0.73628936 </v>
   <v>       0.01633399       0.05499430      -0.20051537 </v>
   <v>       0.00881693       0.04181374       0.20996694 </v>
   <v>       0.01583220       0.05430904      -0.20200362 </v>
   <v>       0.01004148       0.04019465       0.21177941 </v>
   <v>       0.01626086       0.05521287      -0.20187038 </v>
   <v>       0.00845965       0.04136537       0.21131451 </v>
  </varray>
  <varray name="stress" >
   <v>     -10.25554106      -0.01493430      -0.08582316 </v>
   <v>      -0.01493431      -9.92979893      -0.19549191 </v>
   <v>      -0.08582328      -0.19549196       6.49449485 </v>
  </varray>
  <energy>
   <i name="e_fr_energy">   -189.78091022 </i>
   <i name="e_wo_entrp">   -189.66171225 </i>
   <i name="e_0_energy">     -0.23839594 </i>
  </energy>
  <time name="totalsc">  361.28  362.23</time>
 </calculation>
 <calculation>
  <scstep>
   <time name="dav">   20.89   20.94</time>
   <time name="total">   21.48   21.53</time>
   <energy>
    <i name="alphaZ">     85.88651979 </i>
    <i name="ewald">  42866.43579496 </i>
    <i name="hartreedc"> -48883.44666394 </i>
    <i name="XCdc">   -232.91371254 </i>
    <i name="pawpsdc">   4038.61194427 </i>
    <i name="pawaedc">  -3454.30875462 </i>
    <i name="eentropy">     -0.19151153 </i>
    <i name="bandstr">  -1372.85762347 </i>
    <i name="atom">   6761.44252427 </i>
    <i name="e_fr_energy">   -191.34148281 </i>
    <i name="e_wo_entrp">   -191.14997128 </i>
    <i name="e_0_energy">   -191.24572704 </i>
   </energy>
  </scstep>
  <scstep>
   <time name="dav">   31.47   31.55</time>
   <time name="total">   32.05   32.14</time>
   <energy>
    <i name="e_fr_energy">   -191.21396319 </i>
    <i name="e_wo_entrp">   -191.02394404 </i>
    <i name="e_0_energy">   -191.11895362 </i>
   </energy>
  </scstep>
  <scstep>
   <time name="dav">   31.22   31.29</time>
   <time name="total">   31.81   31.89</time>
   <energy>
    <i name="e_fr_energy">   -191.31454602 </i>
    <i name="e_wo_entrp">   -191.09352568 </i>
    <i name="e_0_energy">   -191.20403585 </i>
   </energy>
  </scstep>
  <scstep>
   <time name="dav">   31.48   31.56</time>
   <time name="total">   32.07   32.15</time>
   <energy>
    <i name="e_fr_energy">   -191.00677270 </i>
    <i name="e_wo_entrp">   -190.82344662 </i>
    <i name="e_0_energy">   -190.91510966 </i>
   </energy>
  </scstep>
  <scstep>
   <time name="dav">   31.46   31.54</time>
   <time name="total">   32.05   32.13</time>
   <energy>
    <i name="e_fr_energy">   -190.85462995 </i>
    <i name="e_wo_entrp">   -190.65718840 </i>
    <i name="e_0_energy">   -190.75590917 </i>
   </energy>
  </scstep>
  <scstep>
   <time name="dav">   29.04   29.11</time>
   <time name="total">   29.63   29.71</time>
   <energy>
    <i name="e_fr_energy">   -190.82788972 </i>
    <i name="e_wo_entrp">   -190.63098318 </i>
    <i name="e_0_energy">   -190.72943645 </i>
   </energy>
  </scstep>
  <scstep>
   <time name="dav">   31.23   31.31</time>
   <time name="total">   31.82   31.90</time>
   <energy>
    <i name="e_fr_energy">   -190.83859911 </i>
    <i name="e_wo_entrp">   -190.64058697 </i>
    <i name="e_0_energy">   -190.73959304 </i>
   </energy>
  </scstep>
  <scstep>
   <time name="dav">   29.87   29.94</time>
   <time name="total">   30.45   30.53</time>
   <energy>
    <i name="e_fr_energy">   -190.82399767 </i>
    <i name="e_wo_entrp">   -190.62619669 </i>
    <i name="e_0_energy">   -190.72509718 </i>
   </energy>
  </scstep>
  <scstep>
   <time name="dav">   31.19   31.27</time>
   <time name="total">   31.78   31.86</time>
   <energy>
    <i name="e_fr_energy">   -190.82486702 </i>
    <i name="e_wo_entrp">   -190.62681348 </i>
    <i name="e_0_energy">   -190.72584025 </i>
   </energy>
  </scstep>
  <scstep>
   <time name="dav">   30.82   30.90</time>
   <time name="total">   31.41   31.49</time>
   <energy>
    <i name="e_fr_energy">   -190.82437105 </i>
    <i name="e_wo_entrp">   -190.62628768 </i>
    <i name="e_0_energy">   -190.72532936 </i>
   </energy>
  </scstep>
  <scstep>
   <time name="dav">   23.39   23.45</time>
   <time name="total">   23.43   23.49</time>
   <energy>
    <i name="alphaZ">     85.88651979 </i>
    <i name="ewald">  42866.43579496 </i>
    <i name="hartreedc"> -48854.35290562 </i>
    <i name="XCdc">   -234.26661169 </i>
    <i name="pawpsdc">   4064.92776978 </i>
    <i name="pawaedc">  -3480.81627336 </i>
    <i name="eentropy">     -0.19819245 </i>
    <i name="bandstr">  -1399.88298163 </i>
    <i name="atom">   6761.44252427 </i>
    <i name="e_fr_energy">   -190.82435596 </i>
    <i name="e_wo_entrp">   -190.62616350 </i>
    <i name="e_0_energy">   -190.72525973 </i>
   </energy>
  </scstep>
  <structure>
   <crystal>
    <varray name="basis" >
     <v>       8.48267010       4.90078856       0.00000000 </v>
     <v>      -8.47984741       4.89593204       0.00000000 </v>
     <v>       0.00000000       0.00000000      30.00000000 </v>
    </varray>
    <i name="volume">   2492.65546517 </i>
    <varray name="rec_basis" >
     <v>       0.05892429       0.10205800       0.00000000 </v>
     <v>      -0.05898274       0.10209197       0.00000000 </v>
     <v>       0.00000000       0.00000000       0.03333333 </v>
    </varray>
   </crystal>
   <varray name="positions" >
    <v>       0.00546976       0.00270851       0.00019802 </v>
    <v>       1.00549015       0.33605814       0.00019559 </v>
    <v>       0.00549024       0.66938101       0.00019653 </v>
    <v>       0.33662780       0.00163535      -0.00014449 </v>
    <v>       0.33663723       0.33502016      -0.00014492 </v>
    <v>       0.33667563       0.66834929      -0.00014344 </v>
    <v>       0.65843910      -0.00416103      -0.00003594 </v>
    <v>       0.65846171       0.32920644      -0.00003791 </v>
    <v>       0.65843461       0.66253266      -0.00003642 </v>
    <v>       0.10564169       0.21956744       0.95169185 </v>
    <v>       0.21629595       0.10810012       0.04949463 </v>
    <v>       0.10564786       0.55289043       0.95168705 </v>
    <v>       0.21628907       0.44143415       0.04949665 </v>
    <v>       0.10564991       0.88624788       0.95168729 </v>
    <v>       0.21630365       0.77476769       0.04949992 </v>
    <v>       0.44533721       0.22266709       0.94858563 </v>
    <v>       0.55661386       0.11158318       0.05141836 </v>
    <v>       0.44533443       0.55600593       0.94858200 </v>
    <v>       0.55661376       0.44490990       0.05142132 </v>
    <v>       0.44533328       0.88932942       0.94858173 </v>
    <v>       0.55661004       0.77824431       0.05142266 </v>
    <v>       0.78213681       0.22435910       0.95128585 </v>
    <v>       0.89280964       0.11289369       0.04750832 </v>
    <v>       0.78212744       0.55768775       0.95128125 </v>
    <v>       0.89280015       0.44620617       0.04751381 </v>
    <v>       0.78213995       0.89102884       0.95128200 </v>
    <v>       0.89280354       0.77956084       0.04751255 </v>
   </varray>
  </structure>
  <varray name="forces" >
   <v>       0.19390103       0.33509140       0.04196843 </v>
   <v>       0.19320211       0.33374884       0.04117201 </v>
   <v>       0.19179598       0.33446333       0.04123290 </v>
   <v>       0.21251875       0.36772006       0.01806737 </v>
   <v>       0.21417576       0.36748662       0.01859374 </v>
   <v>       0.21249037       0.36613711       0.01668245 </v>
   <v>      -0.32904937      -0.57399891      -0.04445858 </v>
   <v>      -0.33084000      -0.57404678      -0.04405703 </v>
   <v>      -0.32865999      -0.57438779      -0.04380854 </v>
   <v>       0.02470102       0.02438551      -0.37173901 </v>
   <v>       0.00276392       0.00855843       0.35219130 </v>
   <v>       0.02388682       0.02514963      -0.36942611 </v>
   <v>       0.00273629       0.00886818       0.35357134 </v>
   <v>       0.02592524       0.02257018      -0.36963642 </v>
   <v>       0.00228203       0.00693017       0.35203491 </v>
   <v>      -0.04578015      -0.08069735      -0.60237766 </v>
   <v>      -0.01255842      -0.02018328       0.55426299 </v>
   <v>      -0.04513038      -0.08023645      -0.60394343 </v>
   <v>      -0.01360637      -0.01960917       0.55367769 </v>
   <v>      -0.04531591      -0.08026673      -0.60366707 </v>
   <v>      -0.01271216      -0.01960973       0.55628800 </v>
   <v>      -0.00692697      -0.01270239      -0.05029789 </v>
   <v>      -0.03888667      -0.04786570       0.10202354 </v>
   <v>      -0.00715112      -0.01085875      -0.04894037 </v>
   <v>      -0.03913858      -0.04582123       0.10045415 </v>
   <v>      -0.00703982      -0.01274517      -0.04996458 </v>
   <v>      -0.03758341      -0.04808004       0.10009586 </v>
  </varray>
  <varray name="stress" >
   <v>      -5.89133263       0.18230082      -0.04737849 </v>
   <v>       0.18230102      -5.70825955       0.04880929 </v>
   <v>      -0.04737850       0.04880932       4.72227393 </v>
  </varray>
  <energy>
   <i name="e_fr_energy">   -190.82435596 </i>
   <i name="e_wo_entrp">   -190.72525973 </i>
   <i name="e_0_energy">     -0.19819245 </i>
  </energy>
  <time name="totalsc">  369.16  370.12</time>
 </calculation>
 <calculation>
  <scstep>
   <time name="dav">   20.78   20.84</time>
   <time name="total">   21.37   21.43</time>
   <energy>
    <i name="alphaZ">     90.30308068 </i>
    <i name="ewald">  44719.11968428 </i>
    <i name="hartreedc"> -50763.10329382 </i>
    <i name="XCdc">   -231.81093850 </i>
    <i name="pawpsdc">   4064.92630481 </i>
    <i name="pawaedc">  -3480.81042683 </i>
    <i name="eentropy">     -0.14850181 </i>
    <i name="bandstr">  -1352.08386816 </i>
    <i name="atom">   6761.44252427 </i>
    <i name="e_fr_energy">   -192.16543507 </i>
    <i name="e_wo_entrp">   -192.01693326 </i>
    <i name="e_0_energy">   -192.09118417 </i>
   </energy>
  </scstep>
  <scstep>
   <time name="dav">   30.31   30.38</time>
   <time name="total">   30.89   30.97</time>
   <energy>
    <i name="e_fr_energy">   -192.17632873 </i>
    <i name="e_wo_entrp">   -191.98676047 </i>
    <i name="e_0_energy">   -192.08154460 </i>
   </energy>
  </scstep>
  <scstep>
   <time name="dav">   30.68   30.75</time>
   <time name="total">   31.26   31.35</time>
   <energy>
    <i name="e_fr_energy">   -192.01456437 </i>
    <i name="e_wo_entrp">   -191.88634985 </i>
    <i name="e_0_energy">   -191.95045711 </i>
   </energy>
  </scstep>
  <scstep>
   <time name="dav">   31.19   31.27</time>
   <time name="total">   31.78   31.87</time>
   <energy>
    <i name="e_fr_energy">   -191.84434974 </i>
    <i name="e_wo_entrp">   -191.64966799 </i>
    <i name="e_0_energy">   -191.74700886 </i>
   </energy>
  </scstep>
  <scstep>
   <time name="dav">   31.08   31.16</time>
   <time name="total">   31.67   31.75</time>
   <energy>
    <i name="e_fr_energy">   -191.66157653 </i>
    <i name="e_wo_entrp">   -191.50200152 </i>
    <i name="e_0_energy">   -191.58178902 </i>
   </energy>
  </scstep>
  <scstep>
   <time name="dav">   31.28   31.36</time>
   <time name="total">   31.87   31.95</time>
   <energy>
    <i name="e_fr_energy">   -191.63118951 </i>
    <i name="e_wo_entrp">   -191.46421620 </i>
    <i name="e_0_energy">   -191.54770285 </i>
   </energy>
  </scstep>
  <scstep>
   <time name="dav">   31.20   31.28</time>
   <time name="total">   31.78   31.87</time>
   <energy>
    <i name="e_fr_energy">   -191.63232206 </i>
    <i name="e_wo_entrp">   -191.46425799 </i>
    <i name="e_0_energy">   -191.54829002 </i>
   </energy>
  </scstep>
  <scstep>
   <time name="dav">   31.48   31.55</time>
   <time name="total">   32.07   32.15</time>
   <energy>
    <i name="e_fr_energy">   -191.62593115 </i>
    <i name="e_wo_entrp">   -191.45859430 </i>
    <i name="e_0_energy">   -191.54226273 </i>
   </energy>
  </scstep>
  <scstep>
   <time name="dav">   31.46   31.54</time>
   <time name="total">   32.05   32.13</time>
   <energy>
    <i name="e_fr_energy">   -191.62629584 </i>
    <i name="e_wo_entrp">   -191.45836370 </i>
    <i name="e_0_energy">   -191.54232977 </i>
   </energy>
  </scstep>
  <scstep>
   <time name="dav">   31.47   31.54</time>
   <time name="total">   32.06   32.16</time>
   <energy>
    <i name="e_fr_energy">   -191.62650456 </i>
    <i name="e_wo_entrp">   -191.45850006 </i>
    <i name="e_0_energy">   -191.54250231 </i>
   </energy>
  </scstep>
  <scstep>
   <time name="dav">   26.28   26.34</time>
   <time name="total">   26.86   26.93</time>
   <energy>
    <i name="e_fr_energy">   -191.62615320 </i>
    <i name="e_wo_entrp">   -191.45811831 </i>
    <i name="e_0_energy">   -191.54213576 </i>
   </energy>
  </scstep>
  <scstep>
   <time name="dav">   20.63   20.68</time>
   <time name="total">   20.67   20.72</time>
   <energy>
    <i name="alphaZ">     90.30308068 </i>
    <i name="ewald">  44719.11968428 </i>
    <i name="hartreedc"> -50728.48227147 </i>
    <i name="XCdc">   -233.34326661 </i>
    <i name="pawpsdc">   4088.00641459 </i>
    <i name="pawaedc">  -3503.97364619 </i>
    <i name="eentropy">     -0.16802226 </i>
    <i name="bandstr">  -1384.53066859 </i>
    <i name="atom">   6761.44252427 </i>
    <i name="e_fr_energy">   -191.62617129 </i>
    <i name="e_wo_entrp">   -191.45814903 </i>
    <i name="e_0_energy">   -191.54216016 </i>
   </energy>
  </scstep>
  <structure>
   <crystal>
    <varray name="basis" >
     <v>       8.27298635       4.79246059       0.00000000 </v>
     <v>      -8.25879445       4.76791057       0.00000000 </v>
     <v>       0.00000000       0.00000000      30.00000000 </v>
    </varray>
    <i name="volume">   2370.74417971 </i>
    <varray name="rec_basis" >
     <v>       0.06033435       0.10450889       0.00000000 </v>
     <v>      -0.06064502       0.10468847       0.00000000 </v>
     <v>       0.00000000       0.00000000       0.03333333 </v>
    </varray>
   </crystal>
   <varray name="positions" >
    <v>       0.01085581       0.00540515       0.00039100 </v>
    <v>       1.01086430       0.33873598       0.00038472 </v>
    <v>       0.01086262       0.67208381       0.00038638 </v>
    <v>       0.34287905       0.00475413      -0.00004972 </v>
    <v>       0.34289073       0.33813211      -0.00004838 </v>
    <v>       0.34293842       0.67146633      -0.00005302 </v>
    <v>       0.64891596      -0.00896287      -0.00026559 </v>
    <v>       0.64892890       0.32442198      -0.00026666 </v>
    <v>       0.64890542       0.65774088      -0.00026386 </v>
    <v>       0.10563935       0.21944154       0.94968954 </v>
    <v>       0.21593128       0.10793217       0.05145906 </v>
    <v>       0.10565459       0.55277389       0.94968940 </v>
    <v>       0.21592758       0.44127236       0.05146737 </v>
    <v>       0.10564182       0.88611319       0.94968976 </v>
    <v>       0.21593003       0.77458985       0.05146752 </v>
    <v>       0.44394217       0.22196908       0.94553073 </v>
    <v>       0.55605832       0.11130647       0.05431553 </v>
    <v>       0.44394537       0.55531132       0.94552010 </v>
    <v>       0.55605739       0.44463943       0.05431766 </v>
    <v>       0.44394334       0.88863103       0.94552107 </v>
    <v>       0.55605659       0.77797131       0.05432990 </v>
    <v>       0.78255358       0.22458444       0.95052488 </v>
    <v>       0.89259248       0.11290894       0.04840536 </v>
    <v>       0.78255512       0.55792662       0.95052193 </v>
    <v>       0.89259271       0.44623229       0.04840882 </v>
    <v>       0.78256298       0.89125806       0.95052060 </v>
    <v>       0.89258854       0.77957496       0.04840578 </v>
   </varray>
  </structure>
  <varray name="forces" >
   <v>       0.25210690       0.43856686      -0.02597649 </v>
   <v>       0.25393906       0.43864585      -0.02420450 </v>
   <v>       0.25432395       0.43667250      -0.02400176 </v>
   <v>       0.05417205       0.09041273      -0.15318749 </v>
   <v>       0.05384264       0.09174519      -0.15428565 </v>
   <v>       0.05634704       0.08745956      -0.15143659 </v>
   <v>      -0.21830171      -0.37521034       0.11320036 </v>
   <v>      -0.22048231      -0.37481846       0.11304445 </v>
   <v>      -0.22013323      -0.37589432       0.11237789 </v>
   <v>       0.07402481       0.12965704      -0.05877074 </v>
   <v>       0.10834866       0.18971413       0.11099770 </v>
   <v>       0.07347404       0.12925942      -0.05808708 </v>
   <v>       0.10812573       0.18903693       0.10777254 </v>
   <v>       0.07434408       0.12949618      -0.05941125 </v>
   <v>       0.10806579       0.18926333       0.10799545 </v>
   <v>      -0.09199597      -0.16047985      -0.26365480 </v>
   <v>      -0.00020022      -0.00021939       0.25893693 </v>
   <v>      -0.09063106      -0.16015496      -0.26225887 </v>
   <v>      -0.00055398       0.00024807       0.26015934 </v>
   <v>      -0.09199523      -0.15969101      -0.26206810 </v>
   <v>      -0.00049671       0.00018435       0.25700887 </v>
   <v>      -0.08164069      -0.14496178       0.23676909 </v>
   <v>      -0.09723534      -0.16587090      -0.21697782 </v>
   <v>      -0.08279416      -0.14520432       0.23606696 </v>
   <v>      -0.09605002      -0.16547153      -0.21891833 </v>
   <v>      -0.08213097      -0.14607745       0.23606930 </v>
   <v>      -0.09647315      -0.16630778      -0.21715943 </v>
  </varray>
  <varray name="stress" >
   <v>      -0.34956445       0.51343788       0.39250870 </v>
   <v>       0.51343789       0.28352073       0.70164762 </v>
   <v>       0.39250880       0.70164762      -0.31785328 </v>
  </varray>
  <energy>
   <i name="e_fr_energy">   -191.62617129 </i>
   <i name="e_wo_entrp">   -191.54216016 </i>
   <i name="e_0_energy">     -0.16802226 </i>
  </energy>
  <time name="totalsc">  395.71  396.76</time>
 </calculation>
 <calculation>
  <scstep>
   <time name="dav">   20.79   20.84</time>
   <time name="total">   21.37   21.42</time>
   <energy>
    <i name="alphaZ">     90.34443227 </i>
    <i name="ewald">  44713.31531039 </i>
    <i name="hartreedc"> -50724.00474012 </i>
    <i name="XCdc">   -233.41760670 </i>
    <i name="pawpsdc">   4087.90386725 </i>
    <i name="pawaedc">  -3503.86613659 </i>
    <i name="eentropy">     -0.15886950 </i>
    <i name="bandstr">  -1383.29602452 </i>
    <i name="atom">   6761.44252427 </i>
    <i name="e_fr_energy">   -191.73724324 </i>
    <i name="e_wo_entrp">   -191.57837375 </i>
    <i name="e_0_energy">   -191.65780849 </i>
   </energy>
  </scstep>
  <scstep>
   <time name="dav">   31.45   31.53</time>
   <time name="total">   32.04   32.12</time>
   <energy>
    <i name="e_fr_energy">   -191.82515375 </i>
    <i name="e_wo_entrp">   -191.63158763 </i>
    <i name="e_0_energy">   -191.72837069 </i>
   </energy>
  </scstep>
  <scstep>
   <time name="dav">   31.30   31.38</time>
   <time name="total">   31.89   31.97</time>
   <energy>
    <i name="e_fr_energy">   -191.76780486 </i>
    <i name="e_wo_entrp">   -191.60841946 </i>
    <i name="e_0_energy">   -191.68811216 </i>
   </energy>
  </scstep>
  <scstep>
   <time name="dav">   30.79   30.86</time>
   <time name="total">   31.37   31.46</time>
   <energy>
    <i name="e_fr_energy">   -191.76219220 </i>
    <i name="e_wo_entrp">   -191.59668048 </i>
    <i name="e_0_energy">   -191.67943634 </i>
   </energy>
  </scstep>
  <scstep>
   <time name="dav">   31.47   31.54</time>
   <time name="total">   32.05   32.13</time>
   <energy>
    <i name="e_fr_energy">   -191.76222507 </i>
    <i name="e_wo_entrp">   -191.59521091 </i>
    <i name="e_0_energy">   -191.67871799 </i>
   </energy>
  </scstep>
  <scstep>
   <time name="dav">   31.41   31.49</time>
   <time name="total">   32.00   32.08</time>
   <energy>
    <i name="e_fr_energy">   -191.76209525 </i>
    <i name="e_wo_entrp">   -191.59574565 </i>
    <i name="e_0_energy">   -191.67892045 </i>
   </energy>
  </scstep>
  <scstep>
   <time name="dav">   31.30   31.38</time>
   <time name="total">   31.89   31.97</time>
   <energy>
    <i name="e_fr_energy">   -191.76138881 </i>
    <i name="e_wo_entrp">   -191.59543670 </i>
    <i name="e_0_energy">   -191.67841276 </i>
   </energy>
  </scstep>
  <scstep>
   <time name="dav">   24.59   24.65</time>
   <time name="total">   24.63   24.70</time>
   <energy>
    <i name="alphaZ">     90.34443227 </i>
    <i name="ewald">  44713.31531039 </i>
    <i name="hartreedc"> -50724.41202332 </i>
    <i name="XCdc">   -233.39898709 </i>
    <i name="pawpsdc">   4085.92879220 </i>
    <i name="pawaedc">  -3501.85656637 </i>
    <i name="eentropy">     -0.16581817 </i>
    <i name="bandstr">  -1382.95897445 </i>
    <i name="atom">   6761.44252427 </i>
    <i name="e_fr_energy">   -191.76131026 </i>
    <i name="e_wo_entrp">   -191.59549208 </i>
    <i name="e_0_energy">   -191.67840117 </i>
   </energy>
  </scstep>
  <structure>
   <crystal>
    <varray name="basis" >
     <v>       8.27067973       4.80696913       0.00000000 </v>
     <v>      -8.24321864       4.75943202       0.00000000 </v>
     <v>       0.00000000       0.00000000      30.00000000 </v>
    </varray>
    <i name="volume">   2369.65906538 </i>
    <varray name="rec_basis" >
     <v>       0.06025464       0.10435955       0.00000000 </v>
     <v>      -0.06085646       0.10470721       0.00000000 </v>
     <v>       0.00000000       0.00000000       0.03333333 </v>
    </varray>
   </crystal>
   <varray name="positions" >
    <v>       0.01389689       0.00693075       0.00035054 </v>
    <v>       1.01391114       0.34025631       0.00034711 </v>
    <v>       0.01390048       0.67359315       0.00034912 </v>
    <v>       0.34356234       0.00508692      -0.00029889 </v>
    <v>       0.34357985       0.33847270      -0.00029933 </v>
    <v>       0.34361332       0.67177761      -0.00029936 </v>
    <v>       0.64625886      -0.01028451      -0.00008318 </v>
    <v>       0.64626730       0.32310902      -0.00008450 </v>
    <v>       0.64623933       0.65642138      -0.00008277 </v>
    <v>       0.10651913       0.21988391       0.94957153 </v>
    <v>       0.21721659       0.10858020       0.05166227 </v>
    <v>       0.10653082       0.55321591       0.94957252 </v>
    <v>       0.21720879       0.44191765       0.05166538 </v>
    <v>       0.10652171       0.88655384       0.94957072 </v>
    <v>       0.21721220       0.77523636       0.05166588 </v>
    <v>       0.44283481       0.22141249       0.94506739 </v>
    <v>       0.55605001       0.11130260       0.05476990 </v>
    <v>       0.44284373       0.55475239       0.94505898 </v>
    <v>       0.55605042       0.44463901       0.05477403 </v>
    <v>       0.44284004       0.88807847       0.94506027 </v>
    <v>       0.55604947       0.77797040       0.05478122 </v>
    <v>       0.78157772       0.22408765       0.95090094 </v>
    <v>       0.89145765       0.11234922       0.04806246 </v>
    <v>       0.78157465       0.55743207       0.95089683 </v>
    <v>       0.89146343       0.44567110       0.04806276 </v>
    <v>       0.78158007       0.89075706       0.95089550 </v>
    <v>       0.89145371       0.77901079       0.04806258 </v>
   </varray>
  </structure>
  <varray name="forces" >
   <v>       0.27699918       0.47966419       0.05061178 </v>
   <v>       0.27730557       0.47895471       0.05022454 </v>
   <v>       0.27653785       0.47854156       0.05074462 </v>
   <v>       0.05464197       0.09296681      -0.03245950 </v>
   <v>       0.05440214       0.09056119      -0.03237993 </v>
   <v>       0.05235952       0.09163676      -0.03312611 </v>
   <v>      -0.24409787      -0.41995349       0.03846335 </v>
   <v>      -0.24243643      -0.42011436       0.03901142 </v>
   <v>      -0.24250600      -0.41771160       0.03995596 </v>
   <v>       0.04322964       0.07453247      -0.10603548 </v>
   <v>       0.07037177       0.12362379       0.04966534 </v>
   <v>       0.04263041       0.07462324      -0.10579361 </v>
   <v>       0.07104237       0.12336814       0.05037887 </v>
   <v>       0.04235769       0.07458603      -0.10517731 </v>
   <v>       0.07092796       0.12383328       0.04930352 </v>
   <v>      -0.04406319      -0.07911228      -0.19672386 </v>
   <v>      -0.03324645      -0.05535162       0.18377956 </v>
   <v>      -0.04438761      -0.07930233      -0.19735779 </v>
   <v>      -0.03372643      -0.05522589       0.18480841 </v>
   <v>      -0.04370219      -0.07908822      -0.19526465 </v>
   <v>      -0.03306294      -0.05568302       0.18395894 </v>
   <v>      -0.05438784      -0.09630321       0.29845753 </v>
   <v>      -0.06890886      -0.11887973      -0.28693096 </v>
   <v>      -0.05457658      -0.09613343       0.29786830 </v>
   <v>      -0.06985300      -0.11881034      -0.28676772 </v>
   <v>      -0.05399534      -0.09646348       0.29841348 </v>
   <v>      -0.06985534      -0.11875919      -0.28762871 </v>
  </varray>
  <varray name="stress" >
   <v>      -0.05229075      -0.01807261       0.09325857 </v>
   <v>      -0.01807231      -0.07484195       0.19175896 </v>
   <v>       0.09325840       0.19175903      -1.23973576 </v>
  </varray>
  <energy>
   <i name="e_fr_energy">   -191.76131026 </i>
   <i name="e_wo_entrp">   -191.67840117 </i>
   <i name="e_0_energy">     -0.16581817 </i>
  </energy>
  <time name="totalsc">  278.49  279.22</time>
 </calculation>
 <calculation>
  <scstep>
   <time name="dav">   20.78   20.83</time>
   <time name="total">   21.36   21.42</time>
   <energy>
    <i name="alphaZ">     90.37381664 </i>
    <i name="ewald">  44730.44660041 </i>
    <i name="hartreedc"> -50741.61685819 </i>
    <i name="XCdc">   -233.37208647 </i>
    <i name="pawpsdc">   4085.94024715 </i>
    <i name="pawaedc">  -3501.86676123 </i>
    <i name="eentropy">     -0.15721830 </i>
    <i name="bandstr">  -1383.04433608 </i>
    <i name="atom">   6761.44252427 </i>
    <i name="e_fr_energy">   -191.85407179 </i>
    <i name="e_wo_entrp">   -191.69685349 </i>
    <i name="e_0_energy">   -191.77546264 </i>
   </energy>
  </scstep>
  <scstep>
   <time name="dav">   31.47   31.54</time>
   <time name="total">   32.06   32.14</time>
   <energy>
    <i name="e_fr_energy">   -191.88177819 </i>
    <i name="e_wo_entrp">   -191.70841132 </i>
    <i name="e_0_energy">   -191.79509475 </i>
   </energy>
  </scstep>
  <scstep>
   <time name="dav">   30.89   30.96</time>
   <time name="total">   31.47   31.55</time>
   <energy>
    <i name="e_fr_energy">   -191.86977188 </i>
    <i name="e_wo_entrp">   -191.71524739 </i>
    <i name="e_0_energy">   -191.79250964 </i>
   </energy>
  </scstep>
  <scstep>
   <time name="dav">   31.07   31.14</time>
   <time name="total">   31.65   31.74</time>
   <energy>
    <i name="e_fr_energy">   -191.86603910 </i>
    <i name="e_wo_entrp">   -191.70675671 </i>
    <i name="e_0_energy">   -191.78639790 </i>
   </energy>
  </scstep>
  <scstep>
   <time name="dav">   31.45   31.52</time>
   <time name="total">   32.03   32.12</time>
   <energy>
    <i name="e_fr_energy">   -191.86831277 </i>
    <i name="e_wo_entrp">   -191.70760985 </i>
    <i name="e_0_energy">   -191.78796131 </i>
   </energy>
  </scstep>
  <scstep>
   <time name="dav">   31.29   31.37</time>
   <time name="total">   31.88   31.96</time>
   <energy>
    <i name="e_fr_energy">   -191.86556452 </i>
    <i name="e_wo_entrp">   -191.70575986 </i>
    <i name="e_0_energy">   -191.78566219 </i>
   </energy>
  </scstep>
  <scstep>
   <time name="dav">   26.26   26.32</time>
   <time name="total">   26.84   26.91</time>
   <energy>
    <i name="e_fr_energy">   -191.86555657 </i>
    <i name="e_wo_entrp">   -191.70608617 </i>
    <i name="e_0_energy">   -191.78582137 </i>
   </energy>
  </scstep>
  <scstep>
   <time name="dav">   26.13   26.20</time>
   <time name="total">   26.72   26.79</time>
   <energy>
    <i name="e_fr_energy">   -191.86555776 </i>
    <i name="e_wo_entrp">   -191.70612214 </i>
    <i name="e_0_energy">   -191.78583995 </i>
   </energy>
  </scstep>
  <scstep>
   <time name="dav">   24.00   24.06</time>
   <time name="total">   24.04   24.11</time>
   <energy>
    <i name="alphaZ">     90.37381664 </i>
    <i name="ewald">  44730.44660041 </i>
    <i name="hartreedc"> -50741.89180544 </i>
    <i name="XCdc">   -233.35967966 </i>
    <i name="pawpsdc">   4089.16921861 </i>
[...]
       <r>  -17.4268    1.0000 </r>
       <r>  -16.7144    1.0000 </r>
       <r>  -16.7143    1.0000 </r>
       <r>  -16.5651    1.0000 </r>
       <r>  -16.5650    1.0000 </r>
       <r>  -16.2160    1.0000 </r>
       <r>  -16.1899    1.0000 </r>
       <r>  -16.1721    1.0000 </r>
       <r>  -16.1719    1.0000 </r>
       <r>  -15.7928    1.0000 </r>
       <r>  -15.7533    1.0000 </r>
       <r>  -15.7532    1.0000 </r>
       <r>  -15.6849    1.0000 </r>
       <r>  -15.5001    1.0000 </r>
       <r>  -15.5000    1.0000 </r>
       <r>  -15.4538    1.0000 </r>
       <r>  -15.2665    1.0000 </r>
       <r>   -9.8273    1.0000 </r>
       <r>   -9.3998    1.0000 </r>
       <r>   -9.1912    1.0000 </r>
       <r>   -9.1911    1.0000 </r>
       <r>   -8.7676    1.0000 </r>
       <r>   -8.7676    1.0000 </r>
       <r>   -8.7489    1.0000 </r>
       <r>   -8.5577    1.0000 </r>
       <r>   -8.5576    1.0000 </r>
       <r>   -8.3743    1.0000 </r>
       <r>   -8.1577    1.0000 </r>
       <r>   -8.0813    1.0000 </r>
       <r>   -8.0788    1.0000 </r>
       <r>   -8.0788    1.0000 </r>
       <r>   -7.7872    1.0000 </r>
       <r>   -7.7870    1.0000 </r>
       <r>   -7.7256    1.0000 </r>
       <r>   -7.7094    1.0000 </r>
       <r>   -7.7093    1.0000 </r>
       <r>   -7.5207    1.0000 </r>
       <r>   -7.5206    1.0000 </r>
       <r>   -7.4295    1.0000 </r>
       <r>   -7.0391    1.0000 </r>
       <r>   -7.0104    1.0000 </r>
       <r>   -7.0103    1.0000 </r>
       <r>   -6.8529    1.0000 </r>
       <r>   -6.7464    1.0000 </r>
       <r>   -6.7463    1.0000 </r>
       <r>   -6.6415    1.0000 </r>
       <r>   -6.5701    1.0000 </r>
       <r>   -6.5700    1.0000 </r>
       <r>   -6.5637    1.0000 </r>
       <r>   -6.3607    1.0000 </r>
       <r>   -6.3105    1.0000 </r>
       <r>   -6.3105    1.0000 </r>
       <r>   -6.2616    1.0000 </r>
       <r>   -6.0800    1.0000 </r>
       <r>   -6.0800    1.0000 </r>
       <r>   -5.9815    1.0000 </r>
       <r>   -5.8630    1.0000 </r>
       <r>   -5.8629    1.0000 </r>
       <r>   -5.7288    1.0000 </r>
       <r>   -5.7287    1.0000 </r>
       <r>   -5.5623    1.0000 </r>
       <r>   -5.5622    1.0000 </r>
       <r>   -5.4490    1.0000 </r>
       <r>   -5.2059    1.0000 </r>
       <r>   -5.0630    1.0000 </r>
       <r>   -5.0007    1.0000 </r>
       <r>   -5.0006    1.0000 </r>
       <r>   -4.7528    1.0000 </r>
       <r>   -4.5580    1.0000 </r>
       <r>   -4.5579    1.0000 </r>
       <r>   -4.5085    1.0000 </r>
       <r>   -4.2549    1.0000 </r>
       <r>   -4.2548    1.0000 </r>
       <r>   -4.0545    1.0000 </r>
       <r>   -4.0542    1.0000 </r>
       <r>   -3.8589    1.0000 </r>
       <r>   -3.8588    1.0000 </r>
       <r>   -3.4430    0.9228 </r>
       <r>   -3.4424    0.9221 </r>
       <r>   -2.9846    0.0346 </r>
       <r>   -2.9845    0.0345 </r>
       <r>   -2.6378    0.0000 </r>
       <r>   -2.6376    0.0000 </r>
       <r>   -2.5654    0.0000 </r>
       <r>   -2.4660    0.0000 </r>
       <r>   -2.1625    0.0000 </r>
       <r>   -2.1624    0.0000 </r>
       <r>   -2.0458    0.0000 </r>
       <r>   -1.9109    0.0000 </r>
       <r>   -1.9108    0.0000 </r>
       <r>   -1.5843    0.0000 </r>
       <r>   -1.1827    0.0000 </r>
       <r>   -1.1743    0.0000 </r>
       <r>   -1.1742    0.0000 </r>
       <r>   -1.0850    0.0000 </r>
      </set>
      <set comment="kpoint 31">
       <r>  -17.4907    1.0000 </r>
       <r>  -17.3327    1.0000 </r>
       <r>  -16.8908    1.0000 </r>
       <r>  -16.6225    1.0000 </r>
       <r>  -16.5712    1.0000 </r>
       <r>  -16.4528    1.0000 </r>
       <r>  -16.2167    1.0000 </r>
       <r>  -16.1890    1.0000 </r>
       <r>  -16.1836    1.0000 </r>
       <r>  -16.1782    1.0000 </r>
       <r>  -15.8946    1.0000 </r>
       <r>  -15.7942    1.0000 </r>
       <r>  -15.6834    1.0000 </r>
       <r>  -15.6468    1.0000 </r>
       <r>  -15.5118    1.0000 </r>
       <r>  -15.4869    1.0000 </r>
       <r>  -15.4541    1.0000 </r>
       <r>  -15.2665    1.0000 </r>
       <r>   -9.7977    1.0000 </r>
       <r>   -9.4715    1.0000 </r>
       <r>   -9.3591    1.0000 </r>
       <r>   -8.9979    1.0000 </r>
       <r>   -8.7845    1.0000 </r>
       <r>   -8.7112    1.0000 </r>
       <r>   -8.6762    1.0000 </r>
       <r>   -8.5793    1.0000 </r>
       <r>   -8.4637    1.0000 </r>
       <r>   -8.3566    1.0000 </r>
       <r>   -8.1807    1.0000 </r>
       <r>   -8.1611    1.0000 </r>
       <r>   -8.0904    1.0000 </r>
       <r>   -8.0690    1.0000 </r>
       <r>   -7.9759    1.0000 </r>
       <r>   -7.9171    1.0000 </r>
       <r>   -7.7045    1.0000 </r>
       <r>   -7.6952    1.0000 </r>
       <r>   -7.6448    1.0000 </r>
       <r>   -7.5211    1.0000 </r>
       <r>   -7.4695    1.0000 </r>
       <r>   -7.2906    1.0000 </r>
       <r>   -7.0933    1.0000 </r>
       <r>   -7.0478    1.0000 </r>
       <r>   -6.9857    1.0000 </r>
       <r>   -6.8461    1.0000 </r>
       <r>   -6.7548    1.0000 </r>
       <r>   -6.7509    1.0000 </r>
       <r>   -6.7029    1.0000 </r>
       <r>   -6.5652    1.0000 </r>
       <r>   -6.5543    1.0000 </r>
       <r>   -6.5542    1.0000 </r>
       <r>   -6.3626    1.0000 </r>
       <r>   -6.3570    1.0000 </r>
       <r>   -6.2811    1.0000 </r>
       <r>   -6.1683    1.0000 </r>
       <r>   -6.0743    1.0000 </r>
       <r>   -6.0522    1.0000 </r>
       <r>   -5.9789    1.0000 </r>
       <r>   -5.9205    1.0000 </r>
       <r>   -5.8799    1.0000 </r>
       <r>   -5.7179    1.0000 </r>
       <r>   -5.7039    1.0000 </r>
       <r>   -5.5294    1.0000 </r>
       <r>   -5.5152    1.0000 </r>
       <r>   -5.4700    1.0000 </r>
       <r>   -5.2086    1.0000 </r>
       <r>   -5.0700    1.0000 </r>
       <r>   -5.0635    1.0000 </r>
       <r>   -4.8962    1.0000 </r>
       <r>   -4.7719    1.0000 </r>
       <r>   -4.6805    1.0000 </r>
       <r>   -4.6502    1.0000 </r>
       <r>   -4.4822    1.0000 </r>
       <r>   -4.2811    1.0000 </r>
       <r>   -4.1686    1.0000 </r>
       <r>   -4.0559    1.0000 </r>
       <r>   -4.0358    1.0000 </r>
       <r>   -3.8915    1.0000 </r>
       <r>   -3.8070    1.0000 </r>
       <r>   -3.4386    0.9182 </r>
       <r>   -3.4371    0.9165 </r>
       <r>   -3.0083    0.0495 </r>
       <r>   -2.9432    0.0174 </r>
       <r>   -2.6610    0.0000 </r>
       <r>   -2.6001    0.0000 </r>
       <r>   -2.5599    0.0000 </r>
       <r>   -2.4853    0.0000 </r>
       <r>   -2.2059    0.0000 </r>
       <r>   -2.1647    0.0000 </r>
       <r>   -2.0423    0.0000 </r>
       <r>   -1.9232    0.0000 </r>
       <r>   -1.9137    0.0000 </r>
       <r>   -1.5741    0.0000 </r>
       <r>   -1.2201    0.0000 </r>
       <r>   -1.2193    0.0000 </r>
       <r>   -1.1965    0.0000 </r>
       <r>   -1.0173    0.0000 </r>
      </set>
      <set comment="kpoint 32">
       <r>  -17.5128    1.0000 </r>
       <r>  -17.2675    1.0000 </r>
       <r>  -16.9874    1.0000 </r>
       <r>  -16.6164    1.0000 </r>
       <r>  -16.5695    1.0000 </r>
       <r>  -16.2945    1.0000 </r>
       <r>  -16.2474    1.0000 </r>
       <r>  -16.2174    1.0000 </r>
       <r>  -16.1896    1.0000 </r>
       <r>  -16.1881    1.0000 </r>
       <r>  -15.9708    1.0000 </r>
       <r>  -15.7955    1.0000 </r>
       <r>  -15.6820    1.0000 </r>
       <r>  -15.6094    1.0000 </r>
       <r>  -15.5165    1.0000 </r>
       <r>  -15.4803    1.0000 </r>
       <r>  -15.4543    1.0000 </r>
       <r>  -15.2666    1.0000 </r>
       <r>   -9.7543    1.0000 </r>
       <r>   -9.5500    1.0000 </r>
       <r>   -9.4206    1.0000 </r>
       <r>   -8.9406    1.0000 </r>
       <r>   -8.7644    1.0000 </r>
       <r>   -8.6795    1.0000 </r>
       <r>   -8.6090    1.0000 </r>
       <r>   -8.4354    1.0000 </r>
       <r>   -8.3921    1.0000 </r>
       <r>   -8.3295    1.0000 </r>
       <r>   -8.3091    1.0000 </r>
       <r>   -8.2279    1.0000 </r>
       <r>   -8.2001    1.0000 </r>
       <r>   -8.1139    1.0000 </r>
       <r>   -8.0196    1.0000 </r>
       <r>   -7.9822    1.0000 </r>
       <r>   -7.6962    1.0000 </r>
       <r>   -7.6750    1.0000 </r>
       <r>   -7.5829    1.0000 </r>
       <r>   -7.5194    1.0000 </r>
       <r>   -7.4807    1.0000 </r>
       <r>   -7.1861    1.0000 </r>
       <r>   -7.1521    1.0000 </r>
       <r>   -7.0557    1.0000 </r>
       <r>   -6.9801    1.0000 </r>
       <r>   -6.8525    1.0000 </r>
       <r>   -6.8136    1.0000 </r>
       <r>   -6.7378    1.0000 </r>
       <r>   -6.6630    1.0000 </r>
       <r>   -6.5472    1.0000 </r>
       <r>   -6.5441    1.0000 </r>
       <r>   -6.5182    1.0000 </r>
       <r>   -6.4507    1.0000 </r>
       <r>   -6.3678    1.0000 </r>
       <r>   -6.2985    1.0000 </r>
       <r>   -6.2015    1.0000 </r>
       <r>   -6.0015    1.0000 </r>
       <r>   -5.9987    1.0000 </r>
       <r>   -5.9811    1.0000 </r>
       <r>   -5.9261    1.0000 </r>
       <r>   -5.7911    1.0000 </r>
       <r>   -5.7239    1.0000 </r>
       <r>   -5.6636    1.0000 </r>
       <r>   -5.6539    1.0000 </r>
       <r>   -5.5025    1.0000 </r>
       <r>   -5.4420    1.0000 </r>
       <r>   -5.2075    1.0000 </r>
       <r>   -5.0672    1.0000 </r>
       <r>   -4.9928    1.0000 </r>
       <r>   -4.8490    1.0000 </r>
       <r>   -4.8189    1.0000 </r>
       <r>   -4.7854    1.0000 </r>
       <r>   -4.7680    1.0000 </r>
       <r>   -4.4601    1.0000 </r>
       <r>   -4.2647    1.0000 </r>
       <r>   -4.1538    1.0000 </r>
       <r>   -4.0439    1.0000 </r>
       <r>   -4.0263    1.0000 </r>
       <r>   -3.9045    1.0000 </r>
       <r>   -3.7735    0.9999 </r>
       <r>   -3.4345    0.9136 </r>
       <r>   -3.4315    0.9103 </r>
       <r>   -3.0143    0.0540 </r>
       <r>   -2.9194    0.0113 </r>
       <r>   -2.6660    0.0000 </r>
       <r>   -2.5796    0.0000 </r>
       <r>   -2.5501    0.0000 </r>
       <r>   -2.5086    0.0000 </r>
       <r>   -2.2366    0.0000 </r>
       <r>   -2.1780    0.0000 </r>
       <r>   -2.0390    0.0000 </r>
       <r>   -1.9372    0.0000 </r>
       <r>   -1.9192    0.0000 </r>
       <r>   -1.5635    0.0000 </r>
       <r>   -1.2491    0.0000 </r>
       <r>   -1.2460    0.0000 </r>
       <r>   -1.2037    0.0000 </r>
       <r>   -0.9837    0.0000 </r>
      </set>
      <set comment="kpoint 33">
       <r>  -17.4907    1.0000 </r>
       <r>  -17.3326    1.0000 </r>
       <r>  -16.8909    1.0000 </r>
       <r>  -16.6225    1.0000 </r>
       <r>  -16.5712    1.0000 </r>
       <r>  -16.4530    1.0000 </r>
       <r>  -16.2167    1.0000 </r>
       <r>  -16.1890    1.0000 </r>
       <r>  -16.1836    1.0000 </r>
       <r>  -16.1782    1.0000 </r>
       <r>  -15.8945    1.0000 </r>
       <r>  -15.7942    1.0000 </r>
       <r>  -15.6835    1.0000 </r>
       <r>  -15.6468    1.0000 </r>
       <r>  -15.5118    1.0000 </r>
       <r>  -15.4869    1.0000 </r>
       <r>  -15.4540    1.0000 </r>
       <r>  -15.2665    1.0000 </r>
       <r>   -9.7976    1.0000 </r>
       <r>   -9.4716    1.0000 </r>
       <r>   -9.3592    1.0000 </r>
       <r>   -8.9981    1.0000 </r>
       <r>   -8.7846    1.0000 </r>
       <r>   -8.7112    1.0000 </r>
       <r>   -8.6763    1.0000 </r>
       <r>   -8.5793    1.0000 </r>
       <r>   -8.4637    1.0000 </r>
       <r>   -8.3566    1.0000 </r>
       <r>   -8.1807    1.0000 </r>
       <r>   -8.1612    1.0000 </r>
       <r>   -8.0904    1.0000 </r>
       <r>   -8.0690    1.0000 </r>
       <r>   -7.9759    1.0000 </r>
       <r>   -7.9171    1.0000 </r>
       <r>   -7.7045    1.0000 </r>
       <r>   -7.6952    1.0000 </r>
       <r>   -7.6448    1.0000 </r>
       <r>   -7.5211    1.0000 </r>
       <r>   -7.4695    1.0000 </r>
       <r>   -7.2907    1.0000 </r>
       <r>   -7.0933    1.0000 </r>
       <r>   -7.0477    1.0000 </r>
       <r>   -6.9856    1.0000 </r>
       <r>   -6.8462    1.0000 </r>
       <r>   -6.7547    1.0000 </r>
       <r>   -6.7509    1.0000 </r>
       <r>   -6.7028    1.0000 </r>
       <r>   -6.5653    1.0000 </r>
       <r>   -6.5543    1.0000 </r>
       <r>   -6.5540    1.0000 </r>
       <r>   -6.3629    1.0000 </r>
       <r>   -6.3571    1.0000 </r>
       <r>   -6.2810    1.0000 </r>
       <r>   -6.1682    1.0000 </r>
       <r>   -6.0740    1.0000 </r>
       <r>   -6.0524    1.0000 </r>
       <r>   -5.9788    1.0000 </r>
       <r>   -5.9205    1.0000 </r>
       <r>   -5.8798    1.0000 </r>
       <r>   -5.7178    1.0000 </r>
       <r>   -5.7040    1.0000 </r>
       <r>   -5.5296    1.0000 </r>
       <r>   -5.5151    1.0000 </r>
       <r>   -5.4699    1.0000 </r>
       <r>   -5.2088    1.0000 </r>
       <r>   -5.0698    1.0000 </r>
       <r>   -5.0635    1.0000 </r>
       <r>   -4.8962    1.0000 </r>
       <r>   -4.7720    1.0000 </r>
       <r>   -4.6809    1.0000 </r>
       <r>   -4.6507    1.0000 </r>
       <r>   -4.4821    1.0000 </r>
       <r>   -4.2811    1.0000 </r>
       <r>   -4.1689    1.0000 </r>
       <r>   -4.0557    1.0000 </r>
       <r>   -4.0357    1.0000 </r>
       <r>   -3.8915    1.0000 </r>
       <r>   -3.8070    1.0000 </r>
       <r>   -3.4386    0.9181 </r>
       <r>   -3.4370    0.9165 </r>
       <r>   -3.0083    0.0495 </r>
       <r>   -2.9432    0.0174 </r>
       <r>   -2.6610    0.0000 </r>
       <r>   -2.6002    0.0000 </r>
       <r>   -2.5599    0.0000 </r>
       <r>   -2.4853    0.0000 </r>
       <r>   -2.2059    0.0000 </r>
       <r>   -2.1647    0.0000 </r>
       <r>   -2.0423    0.0000 </r>
       <r>   -1.9233    0.0000 </r>
       <r>   -1.9138    0.0000 </r>
       <r>   -1.5741    0.0000 </r>
       <r>   -1.2200    0.0000 </r>
       <r>   -1.2192    0.0000 </r>
       <r>   -1.1964    0.0000 </r>
       <r>   -1.0173    0.0000 </r>
      </set>
      <set comment="kpoint 34">
       <r>  -17.4268    1.0000 </r>
       <r>  -17.4267    1.0000 </r>
       <r>  -16.7146    1.0000 </r>
       <r>  -16.7145    1.0000 </r>
       <r>  -16.5651    1.0000 </r>
       <r>  -16.5650    1.0000 </r>
       <r>  -16.2160    1.0000 </r>
       <r>  -16.1899    1.0000 </r>
       <r>  -16.1721    1.0000 </r>
       <r>  -16.1719    1.0000 </r>
       <r>  -15.7929    1.0000 </r>
       <r>  -15.7532    1.0000 </r>
       <r>  -15.7531    1.0000 </r>
       <r>  -15.6850    1.0000 </r>
       <r>  -15.5001    1.0000 </r>
       <r>  -15.5000    1.0000 </r>
       <r>  -15.4537    1.0000 </r>
       <r>  -15.2664    1.0000 </r>
       <r>   -9.8273    1.0000 </r>
       <r>   -9.3999    1.0000 </r>
       <r>   -9.1913    1.0000 </r>
       <r>   -9.1913    1.0000 </r>
       <r>   -8.7676    1.0000 </r>
       <r>   -8.7676    1.0000 </r>
       <r>   -8.7490    1.0000 </r>
       <r>   -8.5577    1.0000 </r>
       <r>   -8.5576    1.0000 </r>
       <r>   -8.3743    1.0000 </r>
       <r>   -8.1577    1.0000 </r>
       <r>   -8.0813    1.0000 </r>
       <r>   -8.0789    1.0000 </r>
       <r>   -8.0789    1.0000 </r>
       <r>   -7.7873    1.0000 </r>
       <r>   -7.7870    1.0000 </r>
       <r>   -7.7256    1.0000 </r>
       <r>   -7.7093    1.0000 </r>
       <r>   -7.7092    1.0000 </r>
       <r>   -7.5205    1.0000 </r>
       <r>   -7.5205    1.0000 </r>
       <r>   -7.4294    1.0000 </r>
       <r>   -7.0390    1.0000 </r>
       <r>   -7.0103    1.0000 </r>
       <r>   -7.0102    1.0000 </r>
       <r>   -6.8529    1.0000 </r>
       <r>   -6.7463    1.0000 </r>
       <r>   -6.7463    1.0000 </r>
       <r>   -6.6415    1.0000 </r>
       <r>   -6.5701    1.0000 </r>
       <r>   -6.5700    1.0000 </r>
       <r>   -6.5634    1.0000 </r>
       <r>   -6.3609    1.0000 </r>
       <r>   -6.3106    1.0000 </r>
       <r>   -6.3105    1.0000 </r>
       <r>   -6.2613    1.0000 </r>
       <r>   -6.0800    1.0000 </r>
       <r>   -6.0800    1.0000 </r>
       <r>   -5.9815    1.0000 </r>
       <r>   -5.8629    1.0000 </r>
       <r>   -5.8629    1.0000 </r>
       <r>   -5.7285    1.0000 </r>
       <r>   -5.7284    1.0000 </r>
       <r>   -5.5622    1.0000 </r>
       <r>   -5.5622    1.0000 </r>
       <r>   -5.4491    1.0000 </r>
       <r>   -5.2061    1.0000 </r>
       <r>   -5.0632    1.0000 </r>
       <r>   -5.0006    1.0000 </r>
       <r>   -5.0006    1.0000 </r>
       <r>   -4.7530    1.0000 </r>
       <r>   -4.5586    1.0000 </r>
       <r>   -4.5584    1.0000 </r>
       <r>   -4.5082    1.0000 </r>
       <r>   -4.2550    1.0000 </r>
       <r>   -4.2549    1.0000 </r>
       <r>   -4.0543    1.0000 </r>
       <r>   -4.0540    1.0000 </r>
       <r>   -3.8589    1.0000 </r>
       <r>   -3.8588    1.0000 </r>
       <r>   -3.4429    0.9226 </r>
       <r>   -3.4423    0.9220 </r>
       <r>   -2.9845    0.0345 </r>
       <r>   -2.9844    0.0345 </r>
       <r>   -2.6378    0.0000 </r>
       <r>   -2.6377    0.0000 </r>
       <r>   -2.5654    0.0000 </r>
       <r>   -2.4660    0.0000 </r>
       <r>   -2.1626    0.0000 </r>
       <r>   -2.1624    0.0000 </r>
       <r>   -2.0458    0.0000 </r>
       <r>   -1.9110    0.0000 </r>
       <r>   -1.9109    0.0000 </r>
       <r>   -1.5843    0.0000 </r>
       <r>   -1.1826    0.0000 </r>
       <r>   -1.1741    0.0000 </r>
       <r>   -1.1739    0.0000 </r>
       <r>   -1.0849    0.0000 </r>
      </set>
     </set>
    </set>
   </array>
  </eigenvalues>
  <separator name="orbital magnetization" >
   <v name="MAGDIPOLOUT">      0.00000000      0.00000000      0.00000000</v>
  </separator>
 </calculation>
 <structure name="finalpos" >
  <crystal>
   <varray name="basis" >
    <v>       8.30852838       4.82875643       0.00000000 </v>
    <v>      -8.28130486       4.78162686       0.00000000 </v>
    <v>       0.00000000       0.00000000      30.00000000 </v>
   </varray>
   <i name="volume">   2391.50059654 </i>
   <varray name="rec_basis" >
    <v>       0.05998276       0.10388421       0.00000000 </v>
    <v>      -0.06057397       0.10422571       0.00000000 </v>
    <v>       0.00000000       0.00000000       0.03333333 </v>
   </varray>
  </crystal>
  <varray name="positions" >
   <v>       0.03526361       0.01761092      -0.00136737 </v>
   <v>       1.03525986       0.35093363      -0.00136632 </v>
   <v>       0.03525407       0.68427139      -0.00136711 </v>
   <v>       0.34285437       0.00474477      -0.00080259 </v>
   <v>       0.34285008       0.33805809      -0.00080292 </v>
   <v>       0.34285566       0.67137364      -0.00080239 </v>
   <v>       0.62878067      -0.01898023       0.00208321 </v>
   <v>       0.62878687       0.31436014       0.00208184 </v>
   <v>       0.62878613       0.64769409       0.00208213 </v>
   <v>       0.11018490       0.22172230       0.94701970 </v>
   <v>       0.22177848       0.11086392       0.05244504 </v>
   <v>       0.11018489       0.55504965       0.94701958 </v>
   <v>       0.22177715       0.44419268       0.05244574 </v>
   <v>       0.11018713       0.88839439       0.94701856 </v>
   <v>       0.22178555       0.77753278       0.05244358 </v>
   <v>       0.44031266       0.22011840       0.94396579 </v>
   <v>       0.55075328       0.10868153       0.05735958 </v>
   <v>       0.44031260       0.55344824       0.94396572 </v>
   <v>       0.55075879       0.44201608       0.05735985 </v>
   <v>       0.44030552       0.88677872       0.94396955 </v>
   <v>       0.55075096       0.77534241       0.05736065 </v>
   <v>       0.77930536       0.22294766       0.95624316 </v>
   <v>       0.89016976       0.11171518       0.04305376 </v>
   <v>       0.77930719       0.55628549       0.95624187 </v>
   <v>       0.89017069       0.44505094       0.04305352 </v>
   <v>       0.77930683       0.88961860       0.95624237 </v>
   <v>       0.89017140       0.77838902       0.04305339 </v>
  </varray>
 </structure>
</modeling>
