       N       E                     dE             d eps       ncg     rms          rms(c)
DAV:   1     0.122284790098E+04    0.12228E+04   -0.37107E+04  6560   0.721E+02
DAV:   2     0.313949429825E+02   -0.11915E+04   -0.11818E+04 10688   0.221E+02
DAV:   3    -0.196877832763E+03   -0.22827E+03   -0.22709E+03  7872   0.104E+02
DAV:   4    -0.209142604518E+03   -0.12265E+02   -0.12185E+02 10720   0.359E+01
DAV:   5    -0.209398558071E+03   -0.25595E+00   -0.25429E+00  8032   0.364E+00    0.278E+01
DAV:   6    -0.239837702525E+03   -0.30439E+02   -0.83280E+02 11008   0.747E+01    0.609E+01
DAV:   7    -0.188241724646E+03    0.51596E+02   -0.34131E+02 12800   0.185E+02    0.143E+01
DAV:   8    -0.190883730147E+03   -0.26420E+01   -0.10664E+02 10624   0.243E+01    0.154E+01
DAV:   9    -0.188434953860E+03    0.24488E+01   -0.18168E+01 10848   0.128E+01    0.101E+01
DAV:  10    -0.186960467372E+03    0.14745E+01   -0.10628E+01 10816   0.926E+00    0.250E+00
DAV:  11    -0.186870036865E+03    0.90431E-01   -0.46507E-01 10016   0.246E+00    0.117E+00
DAV:  12    -0.186911941185E+03   -0.41904E-01   -0.92360E-01 10880   0.276E+00    0.304E+00
DAV:  13    -0.186840052454E+03    0.71889E-01   -0.93995E-01 10336   0.290E+00    0.933E-01
DAV:  14    -0.186833199114E+03    0.68533E-02   -0.16875E-01 10816   0.992E-01    0.547E-01
DAV:  15    -0.186833302419E+03   -0.10330E-03   -0.98505E-02 10816   0.935E-01    0.759E-01
DAV:  16    -0.186828310293E+03    0.49921E-02   -0.56944E-02 10752   0.687E-01    0.215E-01
DAV:  17    -0.186827634468E+03    0.67583E-03   -0.12335E-02 10880   0.289E-01    0.145E-01
DAV:  18    -0.186827140343E+03    0.49413E-03   -0.45195E-03  9888   0.137E-01    0.123E-01
DAV:  19    -0.186827123690E+03    0.16653E-04   -0.37203E-03  9984   0.175E-01    0.825E-02
DAV:  20    -0.186828370238E+03   -0.12465E-02   -0.23070E-03  9792   0.143E-01    0.781E-02
DAV:  21    -0.186829090425E+03   -0.72019E-03   -0.81512E-04  7072   0.553E-02    0.576E-02
DAV:  22    -0.186829582816E+03   -0.49239E-03   -0.46404E-04  6368   0.522E-02    0.144E-02
DAV:  23    -0.186830529679E+03   -0.94686E-03   -0.99940E-05  6080   0.362E-02    0.164E-02
DAV:  24    -0.186831039281E+03   -0.50960E-03   -0.66642E-05  5888   0.271E-02    0.763E-03
DAV:  25    -0.186831303092E+03   -0.26381E-03   -0.33743E-05  5344   0.151E-02    0.656E-03
DAV:  26    -0.186831661365E+03   -0.35827E-03   -0.15022E-05  5184   0.127E-02    0.280E-03
DAV:  27    -0.186831788442E+03   -0.12708E-03   -0.41366E-06  4576   0.705E-03    0.165E-03
DAV:  28    -0.186831849891E+03   -0.61450E-04   -0.17070E-06  4512   0.456E-03
   1 F= -.18683185E+03 E0= -.18665929E+03  d E =-.186832E+03
       N       E                     dE             d eps       ncg     rms          rms(c)
DAV:   1    -0.187073620599E+03   -0.24183E+00   -0.28538E+02  6528   0.439E+01    0.446E+00
DAV:   2    -0.189364555541E+03   -0.22909E+01   -0.28745E+01  9856   0.189E+01    0.809E+00
DAV:   3    -0.189282559349E+03    0.81996E-01   -0.16505E+01 10720   0.128E+01    0.621E+00
DAV:   4    -0.188744155923E+03    0.53840E+00   -0.37159E+00 10176   0.565E+00    0.159E+00
DAV:   5    -0.188708895126E+03    0.35261E-01   -0.47050E-01  9856   0.167E+00    0.120E+00
DAV:   6    -0.188691071670E+03    0.17823E-01   -0.45547E-01  9440   0.119E+00    0.829E-01
DAV:   7    -0.188679325813E+03    0.11746E-01   -0.15826E-01 10336   0.937E-01    0.520E-01
DAV:   8    -0.188679357806E+03   -0.31993E-04   -0.62600E-02 10656   0.748E-01    0.468E-01
DAV:   9    -0.188677307645E+03    0.20502E-02   -0.19650E-02 10848   0.409E-01    0.110E-01
DAV:  10    -0.188677461791E+03   -0.15415E-03   -0.39251E-03 10400   0.129E-01    0.104E-01
DAV:  11    -0.188677314968E+03    0.14682E-03   -0.24368E-03  8832   0.801E-02    0.387E-02
DAV:  12    -0.188677423426E+03   -0.10846E-03   -0.60468E-04  7104   0.522E-02    0.413E-02
DAV:  13    -0.188677488037E+03   -0.64612E-04   -0.63797E-04  6848   0.823E-02
   2 F= -.18867749E+03 E0= -.18853632E+03  d E =-.184564E+01
       N       E                     dE             d eps       ncg     rms          rms(c)
DAV:   1    -0.190590223767E+03   -0.19128E+01   -0.32278E+01  6528   0.178E+01    0.434E+00
DAV:   2    -0.190436261047E+03    0.15396E+00   -0.77035E+00 10848   0.106E+01    0.664E+00
DAV:   3    -0.190115429223E+03    0.32083E+00   -0.95422E+00 10784   0.100E+01    0.448E+00
DAV:   4    -0.189865379187E+03    0.25005E+00   -0.43645E+00 10816   0.545E+00    0.227E+00
DAV:   5    -0.189797296277E+03    0.68083E-01   -0.88653E-01 10816   0.211E+00    0.848E-01
DAV:   6    -0.189780450620E+03    0.16846E-01   -0.17401E-01 10048   0.871E-01    0.281E-01
DAV:   7    -0.189782528191E+03   -0.20776E-02   -0.37171E-02 10464   0.627E-01    0.502E-01
DAV:   8    -0.189780639234E+03    0.18890E-02   -0.22071E-02 10752   0.471E-01    0.129E-01
DAV:   9    -0.189781031362E+03   -0.39213E-03   -0.29791E-03  9664   0.169E-01    0.143E-01
DAV:  10    -0.189780944027E+03    0.87335E-04   -0.36809E-03  8672   0.196E-01    0.898E-02
DAV:  11    -0.189780910219E+03    0.33808E-04   -0.94837E-04  6944   0.918E-02
   3 F= -.18978091E+03 E0= -.18966171E+03  d E =-.110342E+01
       N       E                     dE             d eps       ncg     rms          rms(c)
DAV:   1    -0.191341482808E+03   -0.15605E+01   -0.85402E+01  6528   0.255E+01    0.472E+00
DAV:   2    -0.191213963184E+03    0.12752E+00   -0.97155E+00 10880   0.943E+00    0.396E+00
DAV:   3    -0.191314546022E+03   -0.10058E+00   -0.78211E+00 10784   0.104E+01    0.631E+00
DAV:   4    -0.191006772703E+03    0.30777E+00   -0.84127E+00 10880   0.101E+01    0.330E+00
DAV:   5    -0.190854629946E+03    0.15214E+00   -0.15038E+00 10880   0.321E+00    0.108E+00
DAV:   6    -0.190827889722E+03    0.26740E-01   -0.43304E-01  9888   0.146E+00    0.642E-01
DAV:   7    -0.190838599112E+03   -0.10709E-01   -0.25424E-01 10784   0.175E+00    0.120E+00
DAV:   8    -0.190823997668E+03    0.14601E-01   -0.12700E-01 10240   0.121E+00    0.158E-01
DAV:   9    -0.190824867018E+03   -0.86935E-03   -0.10018E-02 10784   0.330E-01    0.272E-01
DAV:  10    -0.190824371052E+03    0.49597E-03   -0.99469E-03 10624   0.343E-01    0.966E-02
DAV:  11    -0.190824355956E+03    0.15096E-04   -0.97404E-04  7520   0.955E-02
   4 F= -.19082436E+03 E0= -.19072526E+03  d E =-.104345E+01
       N       E                     dE             d eps       ncg     rms          rms(c)
DAV:   1    -0.192165435069E+03   -0.13411E+01   -0.19460E+02  6528   0.375E+01    0.594E+00
DAV:   2    -0.192176328732E+03   -0.10894E-01   -0.17601E+01 10400   0.107E+01    0.372E+00
DAV:   3    -0.192014564370E+03    0.16176E+00   -0.80626E+00 10560   0.744E+00    0.459E+00
DAV:   4    -0.191844349741E+03    0.17021E+00   -0.57073E+00 10752   0.913E+00    0.391E+00
DAV:   5    -0.191661576527E+03    0.18277E+00   -0.23337E+00 10720   0.603E+00    0.134E+00
DAV:   6    -0.191631189506E+03    0.30387E-01   -0.54424E-01 10816   0.197E+00    0.528E-01
DAV:   7    -0.191632322048E+03   -0.11325E-02   -0.14020E-01 10784   0.129E+00    0.825E-01
DAV:   8    -0.191625931150E+03    0.63909E-02   -0.73794E-02 10880   0.100E+00    0.193E-01
DAV:   9    -0.191626295840E+03   -0.36469E-03   -0.66287E-03 10880   0.260E-01    0.161E-01
DAV:  10    -0.191626504562E+03   -0.20872E-03   -0.10012E-02 10880   0.373E-01    0.197E-01
DAV:  11    -0.191626153204E+03    0.35136E-03   -0.35477E-03  8736   0.216E-01    0.244E-02
DAV:  12    -0.191626171286E+03   -0.18082E-04   -0.22334E-04  6400   0.396E-02
   5 F= -.19162617E+03 E0= -.19154216E+03  d E =-.801815E+00
       N       E                     dE             d eps       ncg     rms          rms(c)
DAV:   1    -0.191737243242E+03   -0.11109E+00   -0.99900E+00  6528   0.821E+00    0.860E-01
DAV:   2    -0.191825153740E+03   -0.87910E-01   -0.11174E+00 10880   0.417E+00    0.233E+00
DAV:   3    -0.191767804854E+03    0.57349E-01   -0.69521E-01 10816   0.339E+00    0.573E-01
DAV:   4    -0.191762192197E+03    0.56127E-02   -0.29918E-02 10624   0.635E-01    0.218E-01
DAV:   5    -0.191762225064E+03   -0.32867E-04   -0.17582E-02 10880   0.344E-01    0.233E-01
DAV:   6    -0.191762095242E+03    0.12982E-03   -0.21318E-02 10880   0.518E-01    0.278E-01
DAV:   7    -0.191761388813E+03    0.70643E-03   -0.92623E-03 10816   0.348E-01    0.715E-02
DAV:   8    -0.191761310256E+03    0.78557E-04   -0.98274E-04  8064   0.875E-02
   6 F= -.19176131E+03 E0= -.19167840E+03  d E =-.135139E+00
       N       E                     dE             d eps       ncg     rms          rms(c)
DAV:   1    -0.191854071779E+03   -0.92683E-01   -0.59619E+00  6528   0.634E+00    0.572E-01
DAV:   2    -0.191881778165E+03   -0.27706E-01   -0.38377E-01 10880   0.232E+00    0.112E+00
DAV:   3    -0.191869771873E+03    0.12006E-01   -0.22159E-01 10656   0.194E+00    0.506E-01
DAV:   4    -0.191866039076E+03    0.37328E-02   -0.23158E-02 10720   0.594E-01    0.205E-01
DAV:   5    -0.191868312821E+03   -0.22737E-02   -0.36940E-02 10880   0.728E-01    0.522E-01
DAV:   6    -0.191865564514E+03    0.27483E-02   -0.26821E-02 10816   0.617E-01    0.677E-02
DAV:   7    -0.191865556560E+03    0.79543E-05   -0.17130E-03  8736   0.123E-01    0.655E-02
DAV:   8    -0.191865557751E+03   -0.11918E-05   -0.14308E-03  8672   0.154E-01    0.744E-02
DAV:   9    -0.191865492189E+03    0.65562E-04   -0.65740E-04  7808   0.951E-02
   7 F= -.19186549E+03 E0= -.19178576E+03  d E =-.104182E+00
       N       E                     dE             d eps       ncg     rms          rms(c)
DAV:   1    -0.191934777868E+03   -0.69220E-01   -0.30436E+00  6528   0.456E+00    0.408E-01
DAV:   2    -0.191946352353E+03   -0.11574E-01   -0.16992E-01 10880   0.153E+00    0.611E-01
DAV:   3    -0.191943886400E+03    0.24660E-02   -0.85927E-02 10784   0.123E+00    0.409E-01
DAV:   4    -0.191941249305E+03    0.26371E-02   -0.18095E-02 10784   0.524E-01    0.121E-01
DAV:   5    -0.191941297550E+03   -0.48245E-04   -0.53336E-03 10880   0.222E-01    0.139E-01
DAV:   6    -0.191941193771E+03    0.10378E-03   -0.52396E-03 10400   0.279E-01    0.116E-01
DAV:   7    -0.191941046358E+03    0.14741E-03   -0.16432E-03  8736   0.145E-01    0.316E-02
DAV:   8    -0.191941026018E+03    0.20340E-04   -0.21026E-04  6432   0.405E-02
   8 F= -.19194103E+03 E0= -.19186310E+03  d E =-.755338E-01
       N       E                     dE             d eps       ncg     rms          rms(c)
DAV:   1    -0.192095408827E+03   -0.15436E+00   -0.59844E+01  6528   0.204E+01    0.171E+00
DAV:   2    -0.192274474245E+03   -0.17907E+00   -0.26823E+00 10304   0.532E+00    0.139E+00
DAV:   3    -0.192295842022E+03   -0.21368E-01   -0.90497E-01 10816   0.415E+00    0.200E+00
DAV:   4    -0.192237282328E+03    0.58560E-01   -0.44491E-01 10816   0.283E+00    0.526E-01
DAV:   5    -0.192232761352E+03    0.45210E-02   -0.53138E-02  9312   0.626E-01    0.160E-01
DAV:   6    -0.192232222881E+03    0.53847E-03   -0.82880E-03  9792   0.309E-01    0.144E-01
DAV:   7    -0.192232434142E+03   -0.21126E-03   -0.10382E-02 10880   0.415E-01    0.223E-01
DAV:   8    -0.192231843628E+03    0.59051E-03   -0.57066E-03 10880   0.299E-01    0.496E-02
DAV:   9    -0.192231841231E+03    0.23969E-05   -0.63498E-04  7648   0.704E-02
   9 F= -.19223184E+03 E0= -.19215781E+03  d E =-.290815E+00
       N       E                     dE             d eps       ncg     rms          rms(c)
DAV:   1    -0.192214288803E+03    0.17555E-01   -0.61998E+01  6528   0.208E+01    0.182E+00
DAV:   2    -0.192415064097E+03   -0.20078E+00   -0.30229E+00  9824   0.547E+00    0.122E+00
DAV:   3    -0.192424152150E+03   -0.90881E-02   -0.60402E-01 10880   0.340E+00    0.174E+00
DAV:   4    -0.192383079792E+03    0.41072E-01   -0.44890E-01 10880   0.290E+00    0.722E-01
DAV:   5    -0.192374747179E+03    0.83326E-02   -0.84872E-02 10208   0.105E+00    0.259E-01
DAV:   6    -0.192375882769E+03   -0.11356E-02   -0.40036E-02 10880   0.856E-01    0.428E-01
DAV:   7    -0.192373651350E+03    0.22314E-02   -0.21710E-02 10816   0.622E-01    0.999E-02
DAV:   8    -0.192373472705E+03    0.17865E-03   -0.18770E-03 10144   0.125E-01    0.429E-02
DAV:   9    -0.192373493536E+03   -0.20832E-04   -0.71565E-04  7744   0.860E-02
  10 F= -.19237349E+03 E0= -.19229932E+03  d E =-.141652E+00
       N       E                     dE             d eps       ncg     rms          rms(c)
DAV:   1    -0.192326513952E+03    0.46959E-01   -0.17136E+01  6528   0.110E+01    0.946E-01
DAV:   2    -0.192356991164E+03   -0.30477E-01   -0.58844E-01 10784   0.232E+00    0.673E-01
DAV:   3    -0.192364003748E+03   -0.70126E-02   -0.23981E-01 10848   0.207E+00    0.115E+00
DAV:   4    -0.192345894623E+03    0.18109E-01   -0.15147E-01 10656   0.166E+00    0.298E-01
DAV:   5    -0.192348206230E+03   -0.23116E-02   -0.54119E-02 10880   0.862E-01    0.561E-01
DAV:   6    -0.192344629311E+03    0.35769E-02   -0.45166E-02 10880   0.886E-01    0.189E-01
DAV:   7    -0.192344157072E+03    0.47224E-03   -0.72812E-03 10880   0.275E-01    0.686E-02
DAV:   8    -0.192344071752E+03    0.85320E-04   -0.90783E-04  8608   0.104E-01
  11 F= -.19234407E+03 E0= -.19227059E+03  d E =0.294218E-01
       N       E                     dE             d eps       ncg     rms          rms(c)
DAV:   1    -0.192351946900E+03   -0.77898E-02   -0.21227E+01  6528   0.120E+01    0.106E+00
DAV:   2    -0.192419614091E+03   -0.67667E-01   -0.10179E+00  9792   0.298E+00    0.595E-01
DAV:   3    -0.192418138426E+03    0.14757E-02   -0.12539E-01 10880   0.144E+00    0.850E-01
DAV:   4    -0.192411087109E+03    0.70513E-02   -0.12292E-01 10880   0.153E+00    0.448E-01
DAV:   5    -0.192409933455E+03    0.11537E-02   -0.44404E-02 10880   0.814E-01    0.417E-01
DAV:   6    -0.192407934767E+03    0.19987E-02   -0.29575E-02 10848   0.725E-01    0.171E-01
DAV:   7    -0.192407575846E+03    0.35892E-03   -0.43877E-03 10880   0.251E-01    0.623E-02
DAV:   8    -0.192407497547E+03    0.78299E-04   -0.95674E-04  8480   0.900E-02
  12 F= -.19240750E+03 E0= -.19233322E+03  d E =-.634258E-01
       N       E                     dE             d eps       ncg     rms          rms(c)
DAV:   1    -0.192411853857E+03   -0.42780E-02   -0.15992E+00  6528   0.324E+00    0.344E-01
DAV:   2    -0.192419793920E+03   -0.79401E-02   -0.11771E-01  9792   0.106E+00    0.357E-01
DAV:   3    -0.192420502755E+03   -0.70883E-03   -0.57908E-02 10880   0.102E+00    0.468E-01
DAV:   4    -0.192417753631E+03    0.27491E-02   -0.20788E-02 10880   0.629E-01    0.111E-01
DAV:   5    -0.192418324442E+03   -0.57081E-03   -0.93927E-03 10880   0.411E-01    0.244E-01
DAV:   6    -0.192417607330E+03    0.71711E-03   -0.66155E-03 10880   0.347E-01    0.368E-02
DAV:   7    -0.192417607142E+03    0.18806E-06   -0.27560E-04  6368   0.569E-02
  13 F= -.19241761E+03 E0= -.19234319E+03  d E =-.101096E-01
       N       E                     dE             d eps       ncg     rms          rms(c)
DAV:   1    -0.192420523149E+03   -0.29158E-02   -0.29158E-01  6528   0.139E+00    0.139E-01
DAV:   2    -0.192422429793E+03   -0.19066E-02   -0.25113E-02 10848   0.637E-01    0.272E-01
DAV:   3    -0.192421619590E+03    0.81020E-03   -0.12063E-02 10880   0.478E-01    0.105E-01
DAV:   4    -0.192421472626E+03    0.14696E-03   -0.14748E-03  8544   0.160E-01    0.551E-02
DAV:   5    -0.192421528896E+03   -0.56270E-04   -0.14208E-03  8704   0.164E-01    0.866E-02
DAV:   6    -0.192421455376E+03    0.73519E-04   -0.75512E-04  8608   0.123E-01
  14 F= -.19242146E+03 E0= -.19234736E+03  d E =-.384823E-02
       N       E                     dE             d eps       ncg     rms          rms(c)
DAV:   1    -0.192423831968E+03   -0.23031E-02   -0.16489E-01  6528   0.105E+00    0.107E-01
DAV:   2    -0.192424655508E+03   -0.82354E-03   -0.11518E-02 10400   0.356E-01    0.796E-02
DAV:   3    -0.192424767093E+03   -0.11158E-03   -0.35942E-03 10752   0.258E-01    0.132E-01
DAV:   4    -0.192424530192E+03    0.23690E-03   -0.17486E-03  8736   0.186E-01    0.304E-02
DAV:   5    -0.192424570059E+03   -0.39867E-04   -0.52864E-04  7936   0.913E-02
  15 F= -.19242457E+03 E0= -.19235090E+03  d E =-.311468E-02
       N       E                     dE             d eps       ncg     rms          rms(c)
DAV:   1    -0.192427042755E+03   -0.25126E-02   -0.27028E-01  6528   0.135E+00    0.135E-01
DAV:   2    -0.192428369843E+03   -0.13271E-02   -0.18749E-02 10528   0.517E-01    0.174E-01
DAV:   3    -0.192428236724E+03    0.13312E-03   -0.83432E-03 10880   0.399E-01    0.142E-01
DAV:   4    -0.192427934153E+03    0.30257E-03   -0.22831E-03  8640   0.206E-01    0.425E-02
DAV:   5    -0.192428038036E+03   -0.10388E-03   -0.13467E-03  8800   0.152E-01    0.973E-02
DAV:   6    -0.192427934655E+03    0.10338E-03   -0.10697E-03  8704   0.149E-01    0.152E-02
DAV:   7    -0.192427938533E+03   -0.38787E-05   -0.60508E-05  6336   0.268E-02
  16 F= -.19242794E+03 E0= -.19235486E+03  d E =-.336847E-02
       N       E                     dE             d eps       ncg     rms          rms(c)
DAV:   1    -0.192429636261E+03   -0.17016E-02   -0.12704E-01  6528   0.928E-01    0.965E-02
DAV:   2    -0.192430217731E+03   -0.58147E-03   -0.87383E-03 10112   0.296E-01    0.664E-02
DAV:   3    -0.192430314610E+03   -0.96879E-04   -0.28164E-03  9952   0.224E-01    0.124E-01
DAV:   4    -0.192430122429E+03    0.19218E-03   -0.15966E-03  8736   0.174E-01    0.296E-02
DAV:   5    -0.192430160904E+03   -0.38475E-04   -0.54143E-04  8032   0.100E-01
  17 F= -.19243016E+03 E0= -.19235740E+03  d E =-.222237E-02
       N       E                     dE             d eps       ncg     rms          rms(c)
DAV:   1    -0.192431156664E+03   -0.10342E-02   -0.39380E-02  6592   0.519E-01    0.637E-02
DAV:   2    -0.192431339803E+03   -0.18314E-03   -0.33380E-03 10848   0.226E-01    0.918E-02
DAV:   3    -0.192431274718E+03    0.65085E-04   -0.18323E-03  8864   0.191E-01    0.570E-02
DAV:   4    -0.192431222454E+03    0.52265E-04   -0.41686E-04  6624   0.907E-02
  18 F= -.19243122E+03 E0= -.19235869E+03  d E =-.106155E-02
       N       E                     dE             d eps       ncg     rms          rms(c)
DAV:   1    -0.192433201778E+03   -0.19271E-02   -0.45908E-01  6528   0.176E+00    0.186E-01
DAV:   2    -0.192436105309E+03   -0.29035E-02   -0.40056E-02 10784   0.809E-01    0.324E-01
DAV:   3    -0.192435024587E+03    0.10807E-02   -0.18820E-02 10880   0.602E-01    0.147E-01
DAV:   4    -0.192434682600E+03    0.34199E-03   -0.27591E-03  9216   0.214E-01    0.652E-02
DAV:   5    -0.192434841450E+03   -0.15885E-03   -0.28186E-03  9344   0.224E-01    0.132E-01
DAV:   6    -0.192434657450E+03    0.18400E-03   -0.21503E-03  8928   0.198E-01    0.296E-02
DAV:   7    -0.192434648003E+03    0.94468E-05   -0.20873E-04  6208   0.449E-02
  19 F= -.19243465E+03 E0= -.19236295E+03  d E =-.342555E-02
       N       E                     dE             d eps       ncg     rms          rms(c)
DAV:   1    -0.192434852067E+03   -0.19462E-03   -0.70077E-03  6720   0.253E-01    0.608E-02
DAV:   2    -0.192434922147E+03   -0.70080E-04   -0.23188E-03 10304   0.216E-01    0.120E-01
DAV:   3    -0.192434746036E+03    0.17611E-03   -0.17395E-03  8736   0.188E-01    0.307E-02
DAV:   4    -0.192434719386E+03    0.26650E-04   -0.24229E-04  6304   0.550E-02
  20 F= -.19243472E+03 E0= -.19236284E+03  d E =-.713831E-04
       N       E                     dE             d eps       ncg     rms          rms(c)
DAV:   1    -0.192435702110E+03   -0.95607E-03   -0.81941E-02  6528   0.748E-01    0.803E-02
DAV:   2    -0.192436123066E+03   -0.42096E-03   -0.65771E-03 10752   0.266E-01    0.112E-01
DAV:   3    -0.192436061128E+03    0.61938E-04   -0.38630E-03  9920   0.263E-01    0.100E-01
DAV:   4    -0.192435933425E+03    0.12770E-03   -0.91092E-04  8160   0.130E-01    0.261E-02
DAV:   5    -0.192435959745E+03   -0.26320E-04   -0.44533E-04  7168   0.922E-02
  21 F= -.19243596E+03 E0= -.19236421E+03  d E =-.124036E-02
       N       E                     dE             d eps       ncg     rms          rms(c)
DAV:   1    -0.192436412816E+03   -0.47939E-03   -0.12775E-02  6688   0.296E-01    0.429E-02
DAV:   2    -0.192436472496E+03   -0.59680E-04   -0.13558E-03 10400   0.142E-01    0.583E-02
DAV:   3    -0.192436449241E+03    0.23255E-04   -0.80002E-04  8704   0.128E-01
  22 F= -.19243645E+03 E0= -.19236478E+03  d E =-.489496E-03
       N       E                     dE             d eps       ncg     rms          rms(c)
DAV:   1    -0.192437385356E+03   -0.91286E-03   -0.97565E-02  6560   0.818E-01    0.869E-02
DAV:   2    -0.192437944824E+03   -0.55947E-03   -0.81158E-03 10880   0.377E-01    0.158E-01
DAV:   3    -0.192437669323E+03    0.27550E-03   -0.39796E-03 10848   0.278E-01    0.617E-02
DAV:   4    -0.192437603337E+03    0.65986E-04   -0.41718E-04  6368   0.835E-02
  23 F= -.19243760E+03 E0= -.19236633E+03  d E =-.115410E-02
       N       E                     dE             d eps       ncg     rms          rms(c)
DAV:   1    -0.192437867793E+03   -0.19847E-03   -0.48654E-03  6752   0.188E-01    0.391E-02
DAV:   2    -0.192438026946E+03   -0.15915E-03   -0.23267E-03  8800   0.196E-01    0.117E-01
DAV:   3    -0.192437859152E+03    0.16779E-03   -0.17105E-03  8672   0.188E-01    0.214E-02
DAV:   4    -0.192437863974E+03   -0.48218E-05   -0.98999E-05  5824   0.353E-02
  24 F= -.19243786E+03 E0= -.19236669E+03  d E =-.260637E-03
